##############################################################################
###               Crystal structure data exported by Match!                ###
##############################################################################
###                           Data published by:                           ###
###                                                                        ###
###               COD (Crystallography Open Database)
##############################################################################
data_1011026
_citation_journal_full    'Journal of Chemical Physics'
_citation_journal_volume  '3'
_citation_page_first  '420'
_citation_page_last   '424'
_citation_year  '1935'
_citation_title  'The Crystal Structure of Lepidocrocite'
loop_
_publ_author_name
  'Ewing F J'
_chemical_formula_sum  'Fe H O2'
_chemical_name_mineral  'Lepidocrocite'
_chemical_name_common  'Iron(III) oxide hydroxide'
_symmetry_space_group_name_H-M 'A m a m'
_space_group_IT_number 63
_space_group_crystal_system 'orthorhombic'
loop_
_symmetry_equiv_pos_as_xyz
   'x, y, z'
   'x, y+0.5, z+0.5'
   '-x, -y, z'
   '-x, -y+0.5, z+0.5'
   'x+0.5, -y, -z'
   'x+0.5, -y+0.5, -z+0.5'
   '-x+0.5, y, -z'
   '-x+0.5, y+0.5, -z+0.5'
   '-x, -y, -z'
   '-x, -y+0.5, -z+0.5'
   'x, y, -z'
   'x, y+0.5, -z+0.5'
   '-x+0.5, y, z'
   '-x+0.5, y+0.5, z+0.5'
   'x+0.5, -y, z'
   'x+0.5, -y+0.5, z+0.5'
_cell_length_a        3.87000
_cell_length_b       12.51000
_cell_length_c        3.06000
_cell_angle_alpha    90.0000
_cell_angle_beta     90.0000
_cell_angle_gamma    90.0000
_cell_formula_units_Z 4
loop_
_atom_site_label
_atom_site_fract_x
_atom_site_fract_y
_atom_site_fract_z
_atom_site_occupancy
_atom_site_B_iso_or_equiv
fe      0.250   -0.322   0.000    1.00000    1.000
o      0.250   0.282   0.000    1.00000    1.000
o      0.250   0.075   0.000    1.00000    1.000
h      -1.000   -1.000   -1.000    1.00000    1.000
_cell_measurement_wavelength    1.541874
_cell_measurement_radiation   'x-rays'
_exptl_crystal_density_diffrn    3.983000
_exptl_crystal_density_meas      4.070000
loop_
_pd_peak_d_spacing
_pd_peak_intensity
     6.255000       1000.00
     3.291031        712.06
     3.127500          3.13
     2.972371         27.00
     2.467035        538.27
     2.432479         90.47
     2.357312        162.06
     2.085000         36.67
     2.080293         27.54
     1.936949        216.32
     1.935000        182.31
     1.848568         72.52
     1.835554          8.80
     1.732111        193.11
     1.645515          2.33
     1.621650         13.95
     1.563750         41.24
     1.543226          0.00
     1.530000         72.86
     1.522540        164.36
     1.486186         26.77
     1.449862         16.12
     1.433458        115.07
     1.418319         16.93
     1.387398         67.48
     1.374355          0.75
     1.368940        105.81
     1.295111         23.58
     1.265551          7.45
     1.263411         22.41
     1.251000          1.20
     1.233517         10.79
     1.216240         29.08
     1.206508          0.07
     1.202867          6.02
     1.200156         47.01
     1.192538          8.64
     1.190352         43.75
     1.183360         15.63
     1.178656         21.39
     1.175261          3.41
     1.143152          2.35
     1.120487          1.00
     1.097010          1.34
     1.093611         18.14
     1.073677         24.53
     1.066028          7.26
     1.059138          7.28
     1.052398          8.51
     1.050564          1.00
     1.042500          3.22
     1.040146         11.09
     1.027750          1.08
     1.016626          1.07
     1.006617          7.50
##############################################################################
###                            Comments                                    ###
##############################################################################
###   from Eiserfeld, Westerwald, Germany
###   Diffraction pattern calculated by Match!. 
###   I/Ic calculated by Match!. 
###   Space group has been derived from given symmetry operations. 
##############################################################################


