##############################################################################
###               Crystal structure data exported by Match!                ###
##############################################################################
###                           Data published by:                           ###
###                                                                        ###
###               COD (Crystallography Open Database)
##############################################################################
data_1010367
_citation_journal_full    'Gazzetta Chimica Italiana'
_citation_journal_volume  '67'
_citation_page_first  '294'
_citation_page_last   '301'
_citation_year  '1937'
_citation_title  'Ricerche sui sali dei cationi esaidrati.- I. Ipofosfiti esaidrati di metalli bivalenti'
loop_
_publ_author_name
  'Ferrari A'
  'Colla C'
_chemical_formula_sum  'Co H16 O10 P2'
_chemical_name_common  'Cobalt dihydrogenphosphate(I) hexahydrate'
_symmetry_space_group_name_H-M 'F -4 3 m'
_space_group_IT_number 216
_space_group_crystal_system 'cubic'
loop_
_symmetry_equiv_pos_as_xyz
   'x, y, z'
   'x+0.5, y+0.5, z'
   'x+0.5, y, z+0.5'
   'x, y+0.5, z+0.5'
   'y, -x, -z'
   'y+0.5, -x+0.5, -z'
   'y+0.5, -x, -z+0.5'
   'y, -x+0.5, -z+0.5'
   '-x, -y, z'
   '-x+0.5, -y+0.5, z'
   '-x+0.5, -y, z+0.5'
   '-x, -y+0.5, z+0.5'
   '-y, x, -z'
   '-y+0.5, x+0.5, -z'
   '-y+0.5, x, -z+0.5'
   '-y, x+0.5, -z+0.5'
   '-x, z, -y'
   '-x+0.5, z+0.5, -y'
   '-x+0.5, z, -y+0.5'
   '-x, z+0.5, -y+0.5'
   'x, -y, -z'
   'x+0.5, -y+0.5, -z'
   'x+0.5, -y, -z+0.5'
   'x, -y+0.5, -z+0.5'
   '-x, -z, y'
   '-x+0.5, -z+0.5, y'
   '-x+0.5, -z, y+0.5'
   '-x, -z+0.5, y+0.5'
   '-z, -y, x'
   '-z+0.5, -y+0.5, x'
   '-z+0.5, -y, x+0.5'
   '-z, -y+0.5, x+0.5'
   '-x, y, -z'
   '-x+0.5, y+0.5, -z'
   '-x+0.5, y, -z+0.5'
   '-x, y+0.5, -z+0.5'
   'z, -y, -x'
   'z+0.5, -y+0.5, -x'
   'z+0.5, -y, -x+0.5'
   'z, -y+0.5, -x+0.5'
   'z, x, y'
   'z+0.5, x+0.5, y'
   'z+0.5, x, y+0.5'
   'z, x+0.5, y+0.5'
   'y, z, x'
   'y+0.5, z+0.5, x'
   'y+0.5, z, x+0.5'
   'y, z+0.5, x+0.5'
   '-y, -z, x'
   '-y+0.5, -z+0.5, x'
   '-y+0.5, -z, x+0.5'
   '-y, -z+0.5, x+0.5'
   'z, -x, -y'
   'z+0.5, -x+0.5, -y'
   'z+0.5, -x, -y+0.5'
   'z, -x+0.5, -y+0.5'
   '-y, z, -x'
   '-y+0.5, z+0.5, -x'
   '-y+0.5, z, -x+0.5'
   '-y, z+0.5, -x+0.5'
   '-z, -x, y'
   '-z+0.5, -x+0.5, y'
   '-z+0.5, -x, y+0.5'
   '-z, -x+0.5, y+0.5'
   '-z, x, -y'
   '-z+0.5, x+0.5, -y'
   '-z+0.5, x, -y+0.5'
   '-z, x+0.5, -y+0.5'
   'y, -z, -x'
   'y+0.5, -z+0.5, -x'
   'y+0.5, -z, -x+0.5'
   'y, -z+0.5, -x+0.5'
   '-y, -x, z'
   '-y+0.5, -x+0.5, z'
   '-y+0.5, -x, z+0.5'
   '-y, -x+0.5, z+0.5'
   'y, x, z'
   'y+0.5, x+0.5, z'
   'y+0.5, x, z+0.5'
   'y, x+0.5, z+0.5'
   'x, -z, -y'
   'x+0.5, -z+0.5, -y'
   'x+0.5, -z, -y+0.5'
   'x, -z+0.5, -y+0.5'
   'x, z, y'
   'x+0.5, z+0.5, y'
   'x+0.5, z, y+0.5'
   'x, z+0.5, y+0.5'
   '-z, y, -x'
   '-z+0.5, y+0.5, -x'
   '-z+0.5, y, -x+0.5'
   '-z, y+0.5, -x+0.5'
   'z, y, x'
   'z+0.5, y+0.5, x'
   'z+0.5, y, x+0.5'
   'z, y+0.5, x+0.5'
_cell_length_a       10.22000
_cell_length_b       10.22000
_cell_length_c       10.22000
_cell_angle_alpha    90.0000
_cell_angle_beta     90.0000
_cell_angle_gamma    90.0000
_cell_formula_units_Z 4
loop_
_atom_site_label
_atom_site_fract_x
_atom_site_fract_y
_atom_site_fract_z
_atom_site_occupancy
_atom_site_B_iso_or_equiv
co      0.000   0.000   0.000    1.00000    1.000
p      0.290   0.290   0.290    0.50000    1.000
o      0.190   0.190   0.190    0.50000    1.000
o      0.390   0.390   0.390    0.50000    1.000
o      0.210   0.000   0.000    1.00000    1.000
h      -1.000   -1.000   -1.000    1.00000    1.000
h      -1.000   -1.000   -1.000    1.00000    1.000
_cell_measurement_wavelength    1.541874
_cell_measurement_radiation   'x-rays'
_exptl_crystal_density_diffrn    1.754000
_exptl_crystal_density_meas      1.810000
loop_
_pd_peak_d_spacing
_pd_peak_intensity
     5.900520       1000.00
     5.110000         29.60
     3.613316        329.92
     3.081446        233.92
     2.950260         76.44
     2.555000        123.98
     2.344629         54.89
     2.285262         38.58
     2.086149         31.20
     1.966840        143.54
     1.806658         93.13
     1.727495         55.90
     1.703333         37.31
     1.615924         12.08
     1.558535         10.43
     1.540723          2.57
     1.475130          8.93
     1.431086         32.73
     1.417259         33.02
     1.365705         15.19
     1.330531         34.80
     1.277500          1.96
     1.248572          0.85
     1.239357         23.26
     1.204439          8.34
     1.180104         20.94
     1.172314          2.80
     1.142631          3.32
     1.121791          9.17
     1.115093          6.16
     1.089456          4.86
     1.071347         15.46
     1.043074          6.63
     1.027149         13.63
     1.022000         10.45
     1.002153          2.64
     0.988005         17.11
     0.983420          7.17
     0.953020         15.89
     0.948903         19.79
     0.932954          2.67
     0.921506          6.44
     0.903329          3.66
     0.892926         11.57
     0.889537         12.81
     0.876358         10.00
     0.866849          3.35
     0.863748          3.40
     0.851667          2.73
     0.842931         12.81
     0.840079          6.69
     0.828951         18.44
     0.820890         26.19
     0.807962          1.67
     0.800492          6.74
     0.798048         16.29
     0.788490         17.76
##############################################################################
###                            Comments                                    ###
##############################################################################
###   Diffraction pattern calculated by Match!. 
###   I/Ic calculated by Match!. 
##############################################################################


