##############################################################################
###               Crystal structure data exported by Match!                ###
##############################################################################
###                           Data published by:                           ###
###                                                                        ###
###               COD (Crystallography Open Database)
##############################################################################
data_1548809
_citation_page_first  '609'
_citation_page_last   '614'
_citation_year  '1972'
_citation_title  'Where Does the Density Localize in the Solid State? Divergent Behaviorfor Hybrids and DFT+U.'
loop_
_publ_author_name
  'Zhao Qing'
  'Kulik Heather J.'
_chemical_formula_sum  'H2 Mn O2'
_chemical_name_mineral  'Pyrochroite'
_chemical_name_common  'Manganese hydroxide'
_symmetry_space_group_name_H-M 'P -3 m 1'
_space_group_IT_number 164
_space_group_crystal_system 'trigonal (hexagonal axes)'
loop_
_symmetry_equiv_pos_as_xyz
   'x, y, z'
   '-y, x-y, z'
   '-x+y, -x, z'
   'x-y, -y, -z'
   '-x, -x+y, -z'
   'y, x, -z'
   '-x, -y, -z'
   'y, -x+y, -z'
   'x-y, x, -z'
   '-x+y, y, z'
   'x, x-y, z'
   '-y, -x, z'
_cell_length_a        3.25000
_cell_length_b        3.25000
_cell_length_c        4.48000
_cell_angle_alpha    90.0000
_cell_angle_beta     90.0000
_cell_angle_gamma   120.0000
_cell_formula_units_Z 1
loop_
_atom_site_label
_atom_site_fract_x
_atom_site_fract_y
_atom_site_fract_z
_atom_site_occupancy
_atom_site_B_iso_or_equiv
mn      0.000   0.000   0.000    1.00000    0.500
o      0.333   0.667   0.226    1.00000    1.200
h      0.333   0.667   0.446    1.00000    2.400
_cell_measurement_wavelength    1.541874
_cell_measurement_radiation   'x-rays'
_cell_measurement_temperature    300.000000
_exptl_crystal_density_diffrn    3.260000
loop_
_pd_peak_d_spacing
_pd_peak_intensity
     4.480000        827.03
     2.814583        307.14
     2.383268       1000.00
     2.240000         29.28
     1.752684        436.15
     1.625000        249.03
     1.527612        185.00
     1.493333         16.01
     1.407291         36.07
     1.342608        112.01
     1.319158        124.02
     1.315338         35.11
     1.191634         89.90
     1.120000         14.87
     1.099552         32.73
     1.063812         28.25
     1.040636         30.93
     1.035032         85.87
     1.024173         49.40
##############################################################################
###                            Comments                                    ###
##############################################################################
###   Diffraction pattern calculated by Match!. 
###   I/Ic calculated by Match!. 
###   Space group has been derived from given symmetry operations. 
##############################################################################


