##############################################################################
###               Crystal structure data exported by Match!                ###
##############################################################################

data_2203275
_citation_journal_full    'Acta Crystallographica, Section E'
_citation_journal_volume  '60(3)'
_citation_page_first  'i31'
_citation_page_last   'i32'
_citation_year  '2004'
_citation_title  'Hexaaquacopper(II) diperchlorate dihydrate'
loop_
_publ_author_name
  'Xin-Hua Li'
  'Feng-Yi Xia'
  'Hong-Ping Xiao'
  'Mao-Lin Hu'
_chemical_formula_sum  'Cl2 Cu H16 O16'
_chemical_name_common  'Hexaaquacopper(II) diperchlorate dihydrate'
_symmetry_space_group_name_H-M 'P 1 21/c 1'
_space_group_IT_number 14
_space_group_crystal_system 'monoclinic'
loop_
_symmetry_equiv_pos_as_xyz
   'x, y, z'
   '-x, y+0.5, -z+0.5'
   '-x, -y, -z'
   'x, -y+0.5, z+0.5'
_cell_length_a        6.29080
_cell_length_b       12.40430
_cell_length_c        9.21810
_cell_angle_alpha    90.0000
_cell_angle_beta    106.1460
_cell_angle_gamma    90.0000
_cell_formula_units_Z 2
loop_
_atom_site_label
_atom_site_fract_x
_atom_site_fract_y
_atom_site_fract_z
_atom_site_occupancy
_atom_site_B_iso_or_equiv
cu      1.000   0.000   0.000    1.00000    1.531
cl      0.745   0.361   0.909    1.00000    2.052
o      0.600   0.268   0.914    1.00000    2.858
o      0.632   0.430   0.779    1.00000    2.368
o      0.780   0.423   1.048    1.00000    3.529
o      0.957   0.322   0.890    1.00000    2.676
o      0.716   0.065   0.004    1.00000    2.068
h      0.687   0.063   0.085    1.00000    3.079
h      0.689   0.127   -0.026    1.00000    3.079
o      0.968   -0.109   0.165    1.00000    2.542
h      1.039   -0.098   0.252    1.00000    3.789
h      0.993   -0.170   0.141    1.00000    3.789
o      1.174   0.116   0.174    1.00000    2.755
h      1.114   0.125   0.240    1.00000    4.105
h      1.303   0.100   0.212    1.00000    4.105
o      0.641   0.651   0.867    1.00000    3.655
h      0.632   0.587   0.842    1.00000    5.526
h      0.599   0.693   0.795    1.00000    5.526
_cell_measurement_wavelength    1.541874
_cell_measurement_radiation   'x-rays'
_cell_measurement_temperature    273.000000
_exptl_crystal_density_diffrn    1.954000
_exptl_crystal_colour            'Pale blue'
loop_
_pd_peak_d_spacing
_pd_peak_intensity
     7.206774        120.39
     6.202150        280.35
     6.042667        335.72
     5.432375        562.58
     5.252550        141.80
     5.079921        238.00
     4.427251        288.43
     4.328095        286.74
     4.235488        311.39
     4.187233        698.88
     4.169632        309.62
     4.166079        831.54
     3.949289         79.22
     3.746423       1000.00
     3.614729        125.88
     3.603387        115.63
     3.458308         33.22
     3.412371        123.86
     3.366430        247.64
     3.175076         65.26
     3.101075        111.86
     3.075910        223.64
     3.042737        532.74
     3.028515          3.32
     3.021835         10.36
     3.021333          5.15
     2.935510         19.78
     2.934730         27.46
     2.926769          0.07
     2.917371         11.75
     2.899010         43.73
     2.871338        106.76
     2.826257        273.41
     2.822940          8.41
     2.800459        240.94
     2.758969          2.04
     2.734518         16.01
     2.716187          4.17
     2.701798         92.25
     2.665111         14.82
     2.626275         32.37
     2.585516         20.63
     2.543923         69.25
     2.539961         93.77
     2.518263         87.48
     2.499962          0.60
     2.487575          0.08
     2.439462         12.13
     2.436341         11.76
     2.431885          0.27
     2.429021        356.91
     2.402258         43.77
     2.388867         12.23
     2.373700         15.05
     2.357919         13.58
     2.306525          2.08
     2.294971         21.21
     2.294861          3.36
     2.280840         12.65
     2.256568          3.43
     2.239651          2.72
     2.227265         19.38
     2.224169          8.43
     2.218492        185.43
     2.213626          0.13
     2.205948          6.77
     2.189254          6.29
     2.179198         27.59
     2.166682         24.40
     2.164232          6.49
     2.164048        142.55
     2.156749          7.27
     2.152255          0.00
     2.137949         58.09
     2.131549         19.73
     2.129764         19.63
     2.117744         75.70
     2.093616          2.58
     2.084816        147.78
     2.083040          2.75
     2.076781          0.01
     2.067383          1.52
     2.064814         16.32
     2.062263         13.64
     2.054276          1.53
     2.034339         28.74
     2.014222         71.85
     2.013236          0.05
     2.011791          0.13
     2.006529         10.91
     1.988181          7.68
     1.983999          0.17
     1.974644         31.91
     1.958760         13.50
     1.956918          6.00
     1.956068         44.87
     1.954879         20.65
     1.951547          8.47
     1.947296         10.19
     1.946280          0.15
     1.939072          3.45
     1.917321         18.64
     1.915728         17.31
     1.913750          3.83
     1.912240         61.50
     1.909633         98.13
     1.899100         61.46
     1.898829          6.66
     1.891373          2.14
     1.884896          6.80
     1.874800         13.51
     1.873212         20.93
     1.868116         50.73
     1.860301          0.10
     1.851899         62.19
     1.846766         11.31
     1.845457         48.17
     1.845163          0.19
     1.844687         31.12
     1.835186         38.03
     1.828675         41.12
     1.823371         34.64
     1.810792         37.16
     1.809025         10.29
     1.807364         46.11
     1.801694         60.66
     1.788266         10.79
     1.777746         13.11
     1.767000          2.38
     1.755603         36.70
     1.753125         79.10
     1.751907          3.79
     1.750850          2.37
     1.738231          2.87
     1.737588          1.90
     1.736744         11.95
     1.735425          0.00
     1.734691          0.83
     1.732490          3.55
     1.729154          2.82
     1.726497         23.49
     1.725569         52.44
     1.717214         61.64
     1.706186         20.67
     1.702846          3.50
     1.702602          0.21
     1.702017         19.03
     1.700433          0.31
     1.694661          9.75
     1.693307          1.96
     1.692939         34.96
     1.689188          1.29
     1.689179          6.63
     1.685939         29.60
     1.684634         10.14
     1.683651          8.90
     1.683215         36.76
     1.666968          6.48
     1.656065          3.95
     1.652117          0.82
     1.651699         14.87
     1.646229         23.19
     1.645154          0.12
     1.640209          0.53
     1.630660          6.77
     1.628595         21.00
     1.628525          4.97
     1.627877          3.43
     1.615932         32.00
     1.613087         11.93
     1.609836         12.25
     1.600193          3.67
     1.599856          6.02
     1.595273          9.27
     1.592310          0.76
     1.589224          0.75
     1.587538          3.89
     1.585883          0.40
     1.584574          0.79
     1.574694          5.69
     1.571875         18.70
     1.569314         20.60
     1.566842          0.16
     1.563721          7.84
     1.556904          7.98
     1.550686          0.12
     1.550569         16.00
     1.550537          7.58
     1.547363          0.15
     1.546051          3.10
     1.543088         26.19
     1.537955          2.06
     1.537816          0.28
     1.536005         29.62
     1.535396          4.25
     1.535329          7.99
     1.528535          6.28
     1.527734          2.09
     1.527297          0.04
     1.525957          0.80
     1.525329         31.23
     1.524632          0.35
     1.523767          3.16
     1.521368         17.35
     1.519255          6.03
     1.516642          1.41
     1.515565          0.97
     1.515456          0.01
     1.515290          4.07
     1.514257          9.92
     1.511953          0.03
     1.510918          0.38
     1.510667         12.78
     1.501882         10.14
     1.500783          6.80
     1.499587          0.28
     1.497900          2.87
     1.492060         10.22
     1.490405          9.13
     1.489918          0.02
     1.485932          3.31
     1.483735         18.56
     1.482052          6.98
     1.479702          3.88
     1.479640          5.84
     1.475750          0.92
     1.472297         11.75
     1.471943         32.47
     1.471191          0.38
     1.468279          0.02
     1.467755         10.56
     1.467365         22.43
     1.467192          2.36
     1.465416          1.17
     1.464141          2.41
     1.463385          4.42
     1.461985         30.58
     1.461887          0.07
     1.460047          4.65
     1.458685          3.01
     1.453156         14.78
     1.449505          5.56
     1.442731          9.16
     1.442698          7.91
     1.442138          0.10
     1.441355          3.85
     1.439709          0.03
     1.439362          0.05
     1.435669         20.24
     1.433351         13.98
     1.433044         17.15
     1.431058          5.61
     1.425924         34.30
     1.418929          0.63
     1.415597         11.85
     1.413129          2.86
     1.411829          0.06
     1.411470          9.13
     1.411091          1.22
     1.410729          6.44
     1.404402          0.53
     1.402563          0.56
     1.400229          0.87
     1.395744          7.20
     1.395701          0.28
     1.395616          0.02
     1.393277          1.29
     1.390153          0.32
     1.389877          0.05
     1.388727          0.08
     1.388693          4.46
     1.385947          0.16
     1.385847         13.60
     1.383630          0.11
     1.383385          0.15
     1.380934         17.90
     1.380071          0.20
     1.379485          2.67
     1.377589          0.09
     1.375977          8.36
     1.375879          1.26
     1.372651          1.76
     1.370723          0.04
     1.367886          0.02
     1.367259          5.24
     1.362262          0.10
     1.361856          8.10
     1.358094          0.00
     1.355139         14.05
     1.352698          7.93
     1.350899          0.03
     1.349722          6.14
     1.349718         10.82
     1.347156          5.82
     1.344935          0.36
     1.344021          0.58
     1.343745          0.09
     1.341798         12.58
     1.341513         23.36
     1.340891         19.58
     1.338266          0.26
     1.338175          0.01
     1.337723          0.30
     1.337457          0.25
     1.337190          6.61
     1.336558          0.54
     1.335463          2.81
     1.332556          4.35
     1.330451          0.26
     1.326245         11.17
     1.322395         12.19
     1.322322          6.52
     1.321790          8.99
     1.318849          3.04
     1.318578          0.77
     1.318422          1.55
     1.316512          5.80
     1.316430          0.19
     1.315962          1.48
     1.315430          1.26
     1.314349          3.12
     1.313137          3.48
     1.311038          0.02
     1.308508          0.89
     1.306208         15.86
     1.306125         14.81
     1.305582          3.07
     1.302653          1.28
     1.301092          6.64
     1.300945          6.30
     1.300238          1.14
     1.297675         11.12
     1.295861          0.72
     1.294765          7.24
     1.292758          9.50
     1.290276          0.28
     1.289607          9.58
     1.285472          2.91
     1.285009          3.24
     1.284770         20.19
     1.284101          0.12
     1.283087          2.04
     1.282837          0.00
     1.281547          0.22
     1.277504          2.67
     1.275154          1.13
     1.272769          7.35
     1.271962          6.45
     1.269980          0.10
     1.268316          0.15
     1.267416          2.18
     1.264279          0.01
     1.261944          5.84
     1.259132          7.25
     1.259023          2.22
     1.258403         16.38
     1.258142          1.30
     1.257689          0.00
     1.256111          0.02
     1.253947          0.00
     1.253580          0.82
     1.252619         12.63
     1.252522          0.76
     1.251862          0.03
     1.251720          0.58
     1.251538          4.17
     1.249981          6.69
     1.248808          0.08
     1.247153          0.47
     1.246756          0.20
     1.246695          0.78
     1.246115          1.66
     1.245843          1.79
     1.244743          1.88
     1.243787          7.37
     1.242744          5.43
     1.242370          0.39
     1.240430          0.05
     1.240307          0.21
     1.239414          3.81
     1.239321          0.21
     1.238489          0.36
     1.237578          0.90
     1.237354          0.05
     1.236185          1.93
     1.235602          2.32
     1.233028          0.17
     1.232637          0.09
     1.231220          1.88
     1.228855          0.92
     1.228658          1.10
     1.228434          0.08
     1.222131          5.60
     1.222115          0.01
     1.220375          3.78
     1.219731          6.44
     1.218170          7.07
     1.215943          0.70
     1.215093          9.87
     1.214511         10.28
     1.214172          0.66
     1.213419          4.86
     1.213319          1.08
     1.212981          1.86
     1.211919          5.15
     1.211766          5.35
     1.209592          1.62
     1.209488          0.67
     1.209422          0.46
     1.208933          4.08
     1.208533          4.42
     1.206176          2.58
     1.205256          5.63
     1.204910          0.00
     1.204744          1.35
     1.203653          3.20
     1.202838          4.00
     1.201260          0.03
     1.201129          0.45
     1.200855          4.11
     1.199656          8.26
     1.195405          2.44
     1.195267          0.07
     1.194845          0.88
     1.194433          0.34
     1.193495         10.19
     1.192970          1.98
     1.192068          2.17
     1.191875          6.89
     1.189831          1.01
     1.189821          1.45
     1.189424          2.82
     1.188852          0.01
     1.186850          1.05
     1.186593          0.47
     1.186223          1.59
     1.185609          4.09
     1.185413          0.30
     1.185392          7.26
     1.182427          0.00
     1.181540          1.02
     1.181232          3.58
     1.178960          3.38
     1.174839          0.15
     1.173233          1.23
     1.172202          2.83
     1.172160          0.01
     1.172110          8.75
     1.171555          4.62
     1.171239          0.20
     1.170006          4.18
     1.169105          0.02
     1.166572          0.13
     1.166546          6.21
     1.165845          3.25
     1.165463          1.56
     1.164229          1.82
     1.162992          0.24
     1.162152          0.16
     1.161093          0.32
     1.160843          0.34
     1.160403          1.68
     1.159999          0.53
     1.157247          2.09
     1.156809          8.57
     1.156607          1.27
     1.155387          7.23
     1.155133          1.06
     1.154570          2.61
     1.153832          5.46
     1.153604          0.25
     1.153562          3.93
     1.153262         10.82
     1.153204          0.00
     1.152769          0.45
     1.151266          2.29
     1.150185          2.42
     1.149617          0.36
     1.149429          3.38
     1.149228          0.00
     1.147486         10.44
     1.147430          2.87
     1.146677          0.32
     1.146394          0.59
     1.145902          0.22
     1.145243          0.34
     1.143544          2.11
     1.142553          0.38
     1.142329          0.08
     1.141809          0.27
     1.140420          7.63
     1.139852          4.42
     1.137457          1.42
     1.137182          0.03
     1.135632          2.62
     1.135327         10.56
     1.134002          0.00
     1.133282          3.72
     1.132448          3.04
     1.131040          0.72
##############################################################################
###                            Comments                                    ###
##############################################################################
###   Diffraction pattern calculated by Match!. 
###   I/Ic calculated by Match!. 
###   Space group has been derived from given symmetry operations. 
##############################################################################


