##############################################################################
###               Crystal structure data exported by Match!                ###
##############################################################################
###                           Data published by:                           ###
###                                                                        ###
###               COD (Crystallography Open Database)
##############################################################################
data_2224196
_citation_journal_full    'Acta Crystallographica Section E'
_citation_journal_volume  '65(12)'
_citation_page_first  'i85'
_citation_year  '2009'
_citation_title  'Copper(II) hydrogenphosphate, CuHPO~4~'
loop_
_publ_author_name
  'G?nther Christiane'
  'G?rls Helmar'
  'Stachel D?rte'
_chemical_formula_sum  'Cu H O4 P'
_chemical_name_common  'Copper(II) hydrogenphosphate'
_symmetry_space_group_name_H-M 'R -3'
_space_group_IT_number 148
_space_group_crystal_system 'trigonal (rhombohedral axes)'
loop_
_symmetry_equiv_pos_as_xyz
   'x, y, z'
   'z, x, y'
   'y, z, x'
   '-x, -y, -z'
   '-z, -x, -y'
   '-y, -z, -x'
_cell_length_a        9.51450
_cell_length_b        9.51450
_cell_length_c        9.51450
_cell_angle_alpha   114.6780
_cell_angle_beta    114.6780
_cell_angle_gamma   114.6780
_cell_formula_units_Z 6
loop_
_atom_site_label
_atom_site_fract_x
_atom_site_fract_y
_atom_site_fract_z
_atom_site_occupancy
_atom_site_B_iso_or_equiv
cu      0.916   0.432   0.190    1.00000    0.535
p      1.315   0.750   0.684    1.00000    0.465
o      1.131   0.515   0.449    1.00000    0.655
o      1.547   0.856   0.773    1.00000    0.834
o      1.333   0.744   0.849    1.00000    0.605
o      1.275   0.888   0.684    1.00000    0.686
h      1.555   0.866   0.689    1.00000    3.157
_cell_measurement_wavelength    1.541874
_cell_measurement_radiation   'x-rays'
_cell_measurement_temperature    183.000000
_exptl_crystal_density_diffrn    3.205000
_exptl_crystal_colour            'green'
loop_
_pd_peak_d_spacing
_pd_peak_intensity
     8.010051       1000.00
     6.028415         25.64
     4.816699          5.11
     4.624605         21.85
     4.127858        200.87
     4.005026          5.79
     3.335933          3.66
     3.253339          6.39
     3.079539         65.75
     3.027515        103.59
     3.014207         33.52
     2.874425        375.93
     2.821080        163.33
     2.670017          0.22
     2.563235         12.76
     2.525191          3.44
     2.441285         46.44
     2.408350         62.14
     2.335234         46.32
     2.312303         21.40
     2.306357         53.72
     2.231102          3.61
     2.221588          4.15
     2.158935         40.48
     2.149285         24.45
     2.136056         15.52
     2.063929         20.00
     2.017352         39.49
     2.009472         31.87
     2.002513         20.25
     1.998648         79.47
     1.949075         22.39
     1.900407          9.52
     1.884747         18.59
     1.849079          4.93
     1.837632         24.61
     1.796076         27.06
     1.788335          0.04
     1.747936         10.99
     1.716924          5.28
     1.712058          5.45
     1.705349         15.57
     1.678792          8.73
     1.667966          1.77
     1.661287          1.69
     1.643092         56.04
     1.626669          7.14
     1.605566          5.52
     1.602010          3.46
     1.594130         20.05
     1.578033         15.91
     1.574253         36.25
     1.569032          0.81
     1.548274         19.72
     1.541535          0.61
     1.539770          2.55
     1.534510          2.67
     1.520137         17.93
     1.513757          7.23
     1.512086         28.25
     1.507104          0.15
     1.490274         49.39
     1.481115         13.34
     1.460921          6.73
     1.438648         22.14
     1.437212          3.71
     1.432932          0.47
     1.421208         14.00
     1.418444         21.43
     1.414622         12.44
     1.410540          2.20
     1.389165         43.78
     1.378475          3.22
     1.375953          8.96
     1.358505          2.44
     1.349178          3.19
     1.339378          7.05
     1.335009          6.18
     1.333861         25.89
     1.332473          1.80
     1.316844          2.96
     1.314410          1.59
     1.312457         12.73
     1.303430          8.05
     1.301297          4.91
     1.298344          8.26
     1.297063         20.66
     1.286509          2.85
     1.282635         10.73
     1.281617          3.60
     1.278579          1.55
     1.268255          1.25
     1.265521          3.00
     1.264334         11.78
     1.262596          5.64
     1.252651          9.17
     1.248873          4.56
     1.239443          0.08
     1.235067          1.39
     1.233965          1.00
     1.224866          0.20
     1.221521          2.05
     1.220642          3.50
     1.218017          0.52
     1.210792         10.82
     1.209082         11.77
     1.205683          1.03
     1.204175          0.56
     1.192252          2.09
     1.190794          3.82
     1.184040          2.02
     1.180223          0.96
     1.179261          2.61
     1.167617          5.16
     1.165318          2.19
     1.158986          8.12
     1.156151          8.66
     1.155406          0.09
     1.154503          1.11
     1.153179          4.12
     1.145587          2.24
     1.144293          6.39
     1.141411          0.50
     1.134047          2.73
     1.132091          3.57
     1.131242          0.48
     1.124219          9.77
     1.115551          0.44
     1.113307          9.71
     1.111978          4.13
     1.110794          0.71
     1.110133          5.09
     1.109332          1.14
     1.104887          2.44
     1.098844          4.74
     1.097702         10.64
     1.092405          0.24
     1.084446          4.10
     1.079467          6.48
     1.077650          0.64
     1.074642          2.31
     1.072636          1.12
     1.071447          1.54
     1.069797          5.43
     1.069080          0.16
     1.068028          1.64
     1.060957          0.01
     1.059683          4.15
     1.058659          3.06
     1.053904          2.95
     1.051210          0.23
     1.050530          2.43
     1.046752          1.55
     1.044899          0.48
     1.040637          2.43
     1.036120          0.64
     1.033560          0.26
     1.032913          0.98
     1.031964          1.64
     1.029322          1.82
     1.026513          5.72
     1.025582          3.93
     1.024431          1.33
     1.019207          2.07
     1.018186          7.90
     1.016770          9.12
     1.016154          0.23
     1.009172          5.16
     1.008676          2.52
     1.007193          1.27
##############################################################################
###                            Comments                                    ###
##############################################################################
###   Diffraction pattern calculated by Match!. 
###   I/Ic calculated by Match!. 
##############################################################################


