##############################################################################
###               Crystal structure data exported by Match!                ###
##############################################################################
###                           Data published by:                           ###
###                                                                        ###
###               COD (Crystallography Open Database)
##############################################################################
data_1011177
_citation_journal_full    'Nature (London)'
_citation_journal_volume  '134'
_citation_page_first  '327'
_citation_page_last   '327'
_citation_year  '1934'
_citation_title  'Crystal structure of the alums'
loop_
_publ_author_name
  'Beevers C A'
  'Lipson H'
_chemical_formula_sum  'Al H24 K O20 S2'
_chemical_name_mineral  'Alum-K'
_chemical_name_common  'Potassium aluminium sulfate(VI) dodecahydrate'
_symmetry_space_group_name_H-M 'P a -3'
_space_group_IT_number 205
_space_group_crystal_system 'cubic'
loop_
_symmetry_equiv_pos_as_xyz
   'x, y, z'
   'z, x, y'
   'y, z, x'
   '-y+0.5, -z, x+0.5'
   'z+0.5, -x+0.5, -y'
   '-y, z+0.5, -x+0.5'
   '-z+0.5, -x, y+0.5'
   '-z, x+0.5, -y+0.5'
   'y+0.5, -z+0.5, -x'
   '-x+0.5, -y, z+0.5'
   'x+0.5, -y+0.5, -z'
   '-x, y+0.5, -z+0.5'
   '-x, -y, -z'
   '-z, -x, -y'
   '-y, -z, -x'
   'y+0.5, z, -x+0.5'
   '-z+0.5, x+0.5, y'
   'y, -z+0.5, x+0.5'
   'z+0.5, x, -y+0.5'
   'z, -x+0.5, y+0.5'
   '-y+0.5, z+0.5, x'
   'x+0.5, y, -z+0.5'
   '-x+0.5, y+0.5, z'
   'x, -y+0.5, z+0.5'
_cell_length_a       12.18000
_cell_length_b       12.18000
_cell_length_c       12.18000
_cell_angle_alpha    90.0000
_cell_angle_beta     90.0000
_cell_angle_gamma    90.0000
_cell_formula_units_Z 4
loop_
_atom_site_label
_atom_site_fract_x
_atom_site_fract_y
_atom_site_fract_z
_atom_site_occupancy
_atom_site_B_iso_or_equiv
k      0.500   0.500   0.500    1.00000    1.000
al      0.000   0.000   0.000    1.00000    1.000
s      0.310   0.310   0.310    1.00000    1.000
o      0.240   0.240   0.240    1.00000    1.000
o      0.300   0.270   0.430    1.00000    1.000
o      0.040   0.130   0.300    1.00000    1.000
o      0.020   -0.020   0.160    1.00000    1.000
_cell_measurement_wavelength    1.541874
_cell_measurement_radiation   'x-rays'
_exptl_crystal_density_diffrn    1.654000
_exptl_crystal_density_meas      1.760000
loop_
_pd_peak_d_spacing
_pd_peak_intensity
     7.032126         37.68
     6.090000          1.69
     5.447062        463.30
     4.972464        231.47
     4.306280       1000.00
     4.060000        534.72
     3.672408         60.81
     3.516063         17.83
     3.378124         29.94
     3.255242        720.67
     3.045000        514.88
     2.954084        165.70
     2.870854         48.71
     2.794284        416.40
     2.723531        164.01
     2.657894         36.43
     2.596785         66.83
     2.486232        112.48
     2.436000          1.74
     2.388695         81.81
     2.344042        107.48
     2.261769        106.35
     2.223754         64.76
     2.153140         51.00
     2.120266         61.64
     2.088853         51.12
     2.058796         50.58
     2.030000         83.85
     2.002380        135.35
     1.975857        118.85
     1.925827        290.81
     1.902196         20.37
     1.879415         10.99
     1.857433        101.51
     1.836204         33.81
     1.815687         52.60
     1.795843         95.09
     1.758032          3.61
     1.740000          4.34
     1.722512         15.28
     1.705541         28.57
     1.689062         38.32
     1.673052         22.90
     1.657488         17.69
     1.627621        172.03
     1.613280         73.73
     1.585701         30.76
     1.559489         15.68
     1.546862         24.54
     1.522500          0.19
     1.510743          9.15
     1.499254         22.19
     1.488024          0.21
     1.477042         79.08
     1.466300         26.23
     1.455788          1.23
     1.435427         76.66
     1.425561          4.55
     1.415896         27.46
     1.406425          9.57
     1.397142          9.17
     1.388040         22.56
     1.379113          2.60
     1.361765         28.79
     1.353333         64.50
     1.345056          1.43
     1.336929         17.89
     1.328947         12.72
     1.321107         34.32
     1.313403         37.35
     1.298392         42.37
     1.291077         36.30
     1.283885         22.50
     1.276811          8.82
     1.263007         11.08
     1.256271          6.39
     1.243116         18.89
     1.236692          1.92
     1.230366         12.25
     1.224136          1.34
     1.218000         11.41
     1.211955         23.61
     1.206000          1.97
     1.194347         83.97
     1.188646         14.59
     1.183026          4.48
     1.177485          7.03
     1.172021         12.95
     1.166632         18.72
     1.161317         34.01
     1.145798          4.86
     1.140762         23.48
     1.135791         17.04
     1.130885         19.07
     1.126041         17.20
     1.121260          7.72
     1.111877         10.00
     1.107273         17.47
     1.102725         22.24
     1.098234          0.28
     1.089412          4.47
     1.085081         18.24
     1.076570         13.66
     1.072389         18.47
     1.064172          1.16
     1.060133          1.72
     1.056140         15.43
     1.052192          8.73
     1.044426         20.42
     1.040608          0.94
     1.036830          6.50
     1.033094          7.37
     1.029398          1.61
     1.025741          3.09
     1.022123          1.23
     1.015000          7.59
     1.011494          6.92
     1.008024         14.60
##############################################################################
###                            Comments                                    ###
##############################################################################
###   alum - synthetic
###   Diffraction pattern calculated by Match!. 
###   I/Ic calculated by Match!. 
##############################################################################


