##############################################################################
###               Crystal structure data exported by Match!                ###
##############################################################################
###                           Data published by:                           ###
###                                                                        ###
###               COD (Crystallography Open Database)
##############################################################################
data_4124074
_citation_journal_full    'Journal of the American Chemical Society'
_citation_journal_volume  '126'
_citation_page_first  '9769'
_citation_page_last   '9775'
_citation_year  '2004'
_citation_title  'Chemical evaluation of hypothetical uninodal zeolites'
loop_
_publ_author_name
  'Foster M.D.'
  'Friedrichs O.D.'
  'Bell R.G.'
  'Paz F.A.A.'
  'Klinowski J.'
_chemical_formula_sum  'O2 Si'
_chemical_name_common  'Silica'
_symmetry_space_group_name_H-M 'P 1 21/c 1'
_space_group_IT_number 14
_space_group_crystal_system 'monoclinic'
loop_
_symmetry_equiv_pos_as_xyz
   'x, y, z'
   '-x, y+0.5, -z+0.5'
   '-x, -y, -z'
   'x, -y+0.5, z+0.5'
_cell_length_a        8.72429
_cell_length_b        7.65516
_cell_length_c        8.74113
_cell_angle_alpha    90.0000
_cell_angle_beta     90.5481
_cell_angle_gamma    90.0000
_cell_formula_units_Z 16
loop_
_atom_site_label
_atom_site_fract_x
_atom_site_fract_y
_atom_site_fract_z
_atom_site_occupancy
_atom_site_B_iso_or_equiv
si      0.105   0.634   0.594    1.00000    1.000
o      0.723   0.771   0.216    1.00000    1.000
o      0.247   0.693   0.494    1.00000    1.000
si      0.165   0.375   0.852    1.00000    1.000
o      0.499   0.829   0.408    1.00000    1.000
o      0.992   0.305   0.861    1.00000    1.000
si      0.595   0.149   0.087    1.00000    1.000
o      0.000   0.500   0.500    1.00000    1.000
o      0.500   0.000   0.000    1.00000    1.000
o      0.629   0.088   0.262    1.00000    1.000
si      0.659   0.903   0.343    1.00000    1.000
o      0.782   0.925   0.478    1.00000    1.000
o      0.168   0.547   0.749    1.00000    1.000
_cell_measurement_wavelength    1.541874
_cell_measurement_radiation   'x-rays'
_exptl_crystal_density_diffrn    2.734000
loop_
_pd_peak_d_spacing
_pd_peak_intensity
     8.723891          7.70
     5.758802          1.38
     5.753978          0.89
     4.820075          0.04
     4.792223          3.44
     4.370365          7.28
     4.361945         17.79
     3.922518          0.10
     3.892581          0.00
     3.827580          1.31
     3.795396         11.87
     3.789878          1.29
     3.506148          0.05
     3.505059          0.15
     3.490918        149.32
     3.487695       1000.00
     3.469766        970.62
     3.466601        147.20
     3.257567        392.39
     3.248928        372.39
     3.102206         33.21
     3.072673         15.92
     2.907964          3.08
     2.879401          0.50
     2.876989          0.16
     2.875098          0.06
     2.851540          7.35
     2.739457         30.28
     2.737898         12.67
     2.729199          6.37
     2.727658          0.00
     2.723018        106.54
     2.718434        102.95
     2.605972          3.66
     2.602399          0.02
     2.592753          0.06
     2.589234          6.76
     2.449475          0.70
     2.449103          3.57
     2.431758          3.70
     2.410396         17.07
     2.410038          2.10
     2.396111         28.79
     2.359926          2.52
     2.356636          0.80
     2.319208         12.49
     2.318332          2.19
     2.317632          0.41
     2.315501          4.95
     2.300655          0.32
     2.299117         10.65
     2.244812         15.89
     2.242527         10.57
     2.236346          5.62
     2.234086         13.65
     2.203608          3.61
     2.202526          0.18
     2.185182          3.50
     2.180973          2.30
     2.138954         82.01
     2.138212          0.39
     2.134061          0.51
     2.133324         91.40
     2.124493          0.00
     2.114935          2.76
     2.101251         24.09
     2.097507          0.71
     2.053640          2.34
     2.052545          0.87
     2.047121          1.04
     2.043874         22.17
     2.040725          1.39
     2.039651          3.30
     2.038565         21.48
     2.035359         10.11
     1.996558         11.84
     1.978827          0.27
     1.970697          0.13
     1.963061          0.26
     1.961259          5.75
     1.958974         88.40
     1.946291         91.79
     1.944057          2.94
     1.919601         11.12
     1.917993         14.48
     1.913790         39.63
     1.899897          0.01
     1.897819          1.33
     1.897698         16.45
     1.894939         10.74
     1.886280          0.06
     1.884246          1.50
     1.877236         10.01
     1.875899          1.01
     1.872277          0.13
     1.870951          0.56
     1.869503          4.61
     1.869338          1.08
     1.857540          0.05
     1.855114          6.81
     1.851141          4.56
     1.848740          1.38
     1.828767          3.63
     1.827235          2.19
     1.819518          5.68
     1.806067         11.04
     1.761085          8.96
     1.760395         72.48
     1.755012          3.11
     1.753074          0.12
     1.752920         64.20
     1.752529          0.35
     1.752239          6.54
     1.745459         18.18
     1.744778          2.50
     1.743848         10.74
     1.738961          1.99
     1.734883         11.19
     1.733300         11.24
     1.719991          0.79
     1.719605          0.35
     1.717443          0.01
     1.717059          0.02
     1.710633         10.00
     1.709747          3.43
     1.704273          3.70
     1.701152          6.45
     1.695759          0.84
     1.694896         10.21
     1.675597          0.48
     1.672748          1.58
     1.669726          0.08
     1.666908          0.48
     1.659759          1.56
     1.657912          0.37
     1.632691          5.95
     1.631043         12.50
     1.628783          1.02
     1.628341          6.17
     1.626705         11.92
     1.625780          0.35
     1.624464          0.75
     1.615105          0.32
     1.606692          1.22
     1.599578          1.99
     1.598647          1.81
     1.597408          0.04
     1.595309          0.53
     1.594590          0.00
     1.592451          0.23
     1.590311          3.50
     1.590146          0.74
     1.587610          1.39
     1.583224          3.11
     1.582522          0.29
     1.582415          3.39
     1.580315          0.32
     1.574817          0.08
     1.574027          3.42
     1.571885          6.37
     1.571100          0.12
     1.566778         33.23
     1.564449         12.63
     1.561975         10.22
     1.559667         35.62
     1.555013          1.61
     1.553873          4.52
     1.551103          8.17
     1.547520          2.71
     1.546397          0.00
     1.536336          9.06
     1.520210          0.76
     1.508072          7.51
     1.507985          2.72
     1.506301          6.22
     1.504340          3.43
     1.503909          0.64
     1.499241          0.49
     1.498815          0.75
     1.498171          0.05
     1.496388          1.01
     1.489805          0.15
     1.488052          0.12
     1.486444          0.22
     1.485620          1.11
     1.476378          0.07
     1.475078          0.19
     1.464414          0.15
     1.463145          0.35
     1.456788          0.09
     1.453982          3.34
     1.446017          3.07
     1.445482          0.91
     1.444933          0.34
     1.444627          3.25
     1.442169          3.23
     1.440277          1.30
     1.439700         33.58
     1.439130          1.08
     1.438495         36.51
     1.437549          1.02
     1.436999          5.19
     1.436474          1.14
     1.434664          0.93
     1.431105          0.49
     1.428444          0.25
     1.426239          2.82
     1.426019         33.51
     1.425770          2.10
     1.424786         36.00
     1.424669          3.56
     1.424566          0.61
     1.422917          0.10
     1.421927          0.80
     1.421055          1.60
     1.420838          1.12
     1.419316          0.85
     1.419051          0.01
     1.417968          0.00
     1.414354          0.29
     1.411857         20.44
     1.410114         27.50
     1.407639          0.85
     1.404654          6.03
     1.400316          0.30
     1.399207         63.19
     1.398437         10.16
     1.390096         66.10
     1.389010          0.02
     1.385752          1.42
     1.383604          5.31
     1.377810          5.11
     1.375698          2.84
     1.372931          4.07
     1.372502          5.94
     1.371131          0.06
     1.370342          0.05
     1.369872          0.88
     1.369728         17.76
     1.368949         13.69
     1.366061          0.66
     1.364709          2.77
     1.364599         15.76
     1.363829         16.81
     1.363591          0.57
     1.361543          2.98
     1.361509          1.10
     1.359217          5.36
     1.357152          0.03
     1.356021          0.07
     1.355304          0.14
     1.354737          2.97
     1.354008          0.40
     1.349010         24.36
     1.348451          0.00
     1.347061          0.04
     1.344903          0.02
     1.343396          5.14
     1.341256          0.26
     1.340143          0.37
     1.339657          0.35
     1.338335          3.16
     1.337851          0.14
     1.336858          1.03
     1.336314         14.19
     1.325438          0.13
     1.316189          0.02
     1.307506          0.73
     1.302986          1.62
     1.301199          0.08
     1.297527          0.74
     1.296377          0.89
     1.296085          0.22
     1.295903          0.58
     1.295628          6.17
     1.295205          0.02
     1.294617          0.01
     1.293477          1.72
     1.293094          0.61
     1.292639          5.88
     1.292366          0.02
     1.290721          0.86
     1.290247          1.74
     1.289758          3.34
     1.289364          0.18
     1.288842         15.89
     1.287969          0.08
     1.287382          4.64
     1.287105          4.23
     1.287011          1.40
     1.286634          3.00
     1.279602          1.93
     1.279281          3.52
     1.279125          0.94
     1.278129          0.11
     1.277854         16.69
     1.276864          4.52
     1.275860          0.13
     1.275518          1.49
     1.274261          0.64
     1.265132          0.61
     1.263293          1.58
     1.262481          1.02
     1.262431          0.02
     1.253892          0.41
     1.253515         10.30
     1.253095          1.12
     1.251775         28.33
     1.250560         22.61
     1.249710          1.45
     1.249221          3.63
     1.248833         12.32
     1.246270          0.01
     1.242098          3.53
     1.241371          2.11
     1.240179          1.98
     1.240058          0.21
     1.239456          0.27
     1.239046          0.17
     1.237306          0.19
     1.236015          0.09
     1.235301          1.07
     1.234301          0.17
     1.232388          5.68
     1.230534          2.70
     1.230076         11.09
     1.228839          0.75
     1.227574          0.26
     1.226348          0.49
     1.224894          0.88
     1.224737          6.94
     1.224552          8.85
     1.221871          2.38
     1.219663          2.73
     1.218680          0.50
     1.217767          0.67
     1.216789          0.02
     1.216489          0.13
     1.216308          0.05
     1.215879          4.35
     1.213528          0.02
     1.213292          5.85
     1.213156          0.42
     1.212396          0.00
     1.212366          1.47
     1.212261          3.55
     1.210926          1.17
     1.207347         18.73
     1.206947          0.32
     1.206849          1.35
     1.206316          0.20
     1.206084         10.11
     1.205198          0.13
     1.205019          0.79
     1.203337          0.09
     1.202808          5.61
     1.201703          0.31
     1.201527          0.43
     1.200826          0.28
     1.198612          0.64
     1.198220         18.40
     1.198056          2.73
     1.195481          0.10
     1.191388          0.61
     1.190534          0.56
     1.188903          0.09
     1.187103          0.04
     1.186995          6.31
     1.185035          1.69
     1.183044          5.88
     1.182834          7.99
     1.182165          2.07
     1.181164          0.28
     1.180401          0.00
     1.179963          6.70
     1.178318          2.67
     1.177694         13.19
     1.176655          1.51
     1.175997          3.42
     1.175717          0.07
     1.174836          0.02
     1.172873          8.27
     1.170218          0.76
     1.168716          1.09
     1.168353          2.14
     1.163639          5.37
     1.162565          0.25
     1.159604          0.10
     1.159166          0.89
     1.158953         16.24
     1.158816          3.49
     1.158638          0.09
     1.157783          0.60
     1.157751          0.01
     1.157469         14.65
     1.156589          0.39
     1.155534          4.95
     1.153718          5.03
     1.153446          7.69
     1.151760          8.01
     1.150796          3.22
     1.150327          0.00
     1.150211          1.31
     1.149558          0.62
     1.149122          3.29
     1.148866          0.32
     1.148853          6.37
     1.148090          0.42
     1.147927          0.17
     1.146590          1.87
     1.146372          0.06
     1.142811          0.09
     1.142787          0.01
     1.141882          0.06
     1.141117          0.26
     1.140919          0.00
     1.140019          2.78
     1.138564          0.13
     1.137074          0.36
     1.130866          0.07
     1.129982          0.21
     1.129799          0.05
     1.129406          0.44
     1.127816          0.65
     1.127635          1.99
     1.123551          0.00
     1.122406          4.09
     1.121588          7.09
     1.121263          6.92
     1.119844          5.09
     1.118173          5.91
     1.117043          0.70
     1.115930          0.06
     1.115330          2.13
     1.114594          0.19
     1.114232          0.19
     1.113917          0.07
     1.113643          0.20
     1.113025          0.71
     1.111970          0.15
     1.111866          1.84
     1.111641          6.40
     1.111259          1.32
     1.111225          0.54
     1.111136          2.62
     1.109563          0.03
     1.107355          0.02
     1.107315          0.92
     1.107046          0.57
     1.102567         13.41
     1.101804          0.94
     1.101444          1.17
     1.101263          0.78
     1.101213          0.32
     1.101072          3.75
     1.098309          0.15
     1.097640          0.01
     1.095572          0.12
     1.094244         13.50
     1.093776          0.01
     1.093280          0.08
     1.092591          2.23
     1.092466          0.03
     1.091971          0.01
     1.090486          1.85
     1.090418          0.04
     1.089762          0.29
     1.089630          0.26
     1.088511          2.34
     1.087063          0.21
     1.087047          0.04
     1.085856          0.07
     1.085403          0.97
     1.085134          4.47
     1.085102          4.85
     1.084474          0.01
     1.084009          0.01
     1.082976          0.04
     1.082845          0.11
     1.082563          1.03
     1.081630          0.01
     1.079601          0.46
     1.079588          0.00
     1.078743          1.21
     1.078149          0.09
     1.078064          0.00
     1.077715          0.02
     1.077307          1.71
     1.076992          1.60
     1.076679          1.94
     1.076265          5.62
     1.074654          0.65
     1.073963          0.27
     1.073145          0.03
     1.073118          0.62
     1.072683          3.44
     1.072646          1.09
     1.072172          0.20
     1.070214          0.00
     1.069477          0.00
##############################################################################
###                            Comments                                    ###
##############################################################################
###   Diffraction pattern calculated by Match!. 
###   I/Ic calculated by Match!. 
###   Space group has been derived from given symmetry operations. 
##############################################################################


