##############################################################################
###               Crystal structure data exported by Match!                ###
##############################################################################
###                           Data published by:                           ###
###                                                                        ###
###               COD (Crystallography Open Database)
##############################################################################
data_9013320
_citation_journal_full    'The Canadian Mineralogist'
_citation_journal_volume  '46'
_citation_page_first  '1501'
_citation_page_last   '1509'
_citation_year  '2008'
_citation_title  'State-of-the-art high-resolution powder x-ray diffraction (HRPXRD)illustrated with Rietveld structure refinement of quartz, sodalite,tremolite, and meionite Locality: Bancroft, Ontario'
loop_
_publ_author_name
  'Antao S. M.'
  'Hassan I.'
  'Wang J.'
  'Lee P. L.'
  'Toby B. H.'
_chemical_formula_sum  'Al3 Cl Na4 O12 Si3'
_chemical_name_mineral  'Sodalite'
_symmetry_space_group_name_H-M 'P -4 3 n'
_space_group_IT_number 218
_space_group_crystal_system 'cubic'
loop_
_symmetry_equiv_pos_as_xyz
   'x, y, z'
   'y+0.5, -x+0.5, -z+0.5'
   '-x, -y, z'
   '-y+0.5, x+0.5, -z+0.5'
   '-x+0.5, z+0.5, -y+0.5'
   'x, -y, -z'
   '-x+0.5, -z+0.5, y+0.5'
   '-z+0.5, -y+0.5, x+0.5'
   '-x, y, -z'
   'z+0.5, -y+0.5, -x+0.5'
   'z, x, y'
   'y, z, x'
   '-y, -z, x'
   'z, -x, -y'
   '-y, z, -x'
   '-z, -x, y'
   '-z, x, -y'
   'y, -z, -x'
   '-y+0.5, -x+0.5, z+0.5'
   'y+0.5, x+0.5, z+0.5'
   'x+0.5, -z+0.5, -y+0.5'
   'x+0.5, z+0.5, y+0.5'
   '-z+0.5, y+0.5, -x+0.5'
   'z+0.5, y+0.5, x+0.5'
_cell_length_a        8.88068
_cell_length_b        8.88068
_cell_length_c        8.88068
_cell_angle_alpha    90.0000
_cell_angle_beta     90.0000
_cell_angle_gamma    90.0000
loop_
_atom_site_label
_atom_site_fract_x
_atom_site_fract_y
_atom_site_fract_z
_atom_site_occupancy
_atom_site_B_iso_or_equiv
na      0.178   0.178   0.178    1.00000    1.429
al      0.250   0.000   0.500    1.00000    0.386
si      0.250   0.500   0.000    1.00000    0.378
o      0.138   0.149   0.439    1.00000    0.836
cl      0.000   0.000   0.000    1.00000    1.950
_cell_measurement_wavelength    1.541874
_cell_measurement_radiation   'x-rays'
_exptl_crystal_density_diffrn    2.298000
loop_
_pd_peak_d_spacing
_pd_peak_intensity
     6.279588        332.51
     4.440340         64.10
     3.971560         12.33
     3.625522       1000.00
     3.139794          0.34
     2.808317         94.89
     2.563631        188.48
     2.463057          0.22
     2.373461        213.83
     2.220170         14.42
     2.153881          0.23
     2.093196        309.69
     1.985780         47.99
     1.937923          0.35
     1.893367         36.21
     1.812761         36.82
     1.776136          0.10
     1.741644         34.00
     1.649101          2.45
     1.621383         28.76
     1.569897        111.12
     1.523024         55.72
     1.501109          0.77
     1.480113         97.15
     1.459975          0.40
     1.440636        104.27
     1.404159          6.89
     1.386929          0.42
     1.370319         38.33
     1.338813         37.25
     1.323853          0.49
     1.309385         39.18
     1.281816         30.02
     1.268668          0.03
     1.255918          1.90
     1.231529          7.41
     1.219855          0.50
     1.208507         93.39
     1.186731          6.37
     1.166090         20.60
     1.156166          0.18
     1.137054          0.68
     1.127847         44.54
     1.110085          5.67
     1.101513          0.21
     1.093136         23.19
     1.076941         24.03
     1.069108          0.49
     1.061444          3.33
     1.046598          4.82
     1.039405          0.05
     1.032358          3.61
     1.025452          0.40
     1.018684         25.41
     1.012047          1.05
##############################################################################
###                            Comments                                    ###
##############################################################################
###   Diffraction pattern calculated by Match!. 
###   I/Ic calculated by Match!. 
###   Space group has been derived from given symmetry operations. 
##############################################################################


