##############################################################################
###               Crystal structure data exported by Match!                ###
##############################################################################
###                           Data published by:                           ###
###                                                                        ###
###               COD (Crystallography Open Database)
##############################################################################
data_1514104
_citation_journal_full    'Geokhimiya'
_citation_journal_volume  '1979'
_citation_page_first  '254'
_citation_page_last   '260'
_citation_year  '1979'
_citation_title  'Pressure diagram of manganese(II,III) oxide and crystal structure of thehigh pressure phase of delta-manganese(II,III) oxide'
loop_
_publ_author_name
  'Kuznetsov L. M.'
  'Tsvigunov A. N.'
  'Brudina K. P.'
_chemical_formula_sum  'Mn3 O4'
_chemical_name_common  'Manganese(II,III) oxide'
_symmetry_space_group_name_H-M 'P b c m'
_space_group_IT_number 57
_space_group_crystal_system 'orthorhombic'
loop_
_symmetry_equiv_pos_as_xyz
   'x, y, z'
   '-x, -y, z+0.5'
   'x, -y+0.5, -z'
   '-x, y+0.5, -z+0.5'
   '-x, -y, -z'
   'x, y, -z+0.5'
   '-x, y+0.5, z'
   'x, -y+0.5, z+0.5'
_cell_length_a        3.02600
_cell_length_b        9.76900
_cell_length_c        9.56800
_cell_angle_alpha    90.0000
_cell_angle_beta     90.0000
_cell_angle_gamma    90.0000
_cell_formula_units_Z 4
loop_
_atom_site_label
_atom_site_fract_x
_atom_site_fract_y
_atom_site_fract_z
_atom_site_occupancy
_atom_site_B_iso_or_equiv
mn      0.683   0.355   0.250    1.00000    1.000
mn      0.205   0.114   0.069    1.00000    1.000
o      0.612   0.250   0.000    1.00000    1.000
o      0.185   0.197   0.250    1.00000    1.000
o      0.205   0.472   0.111    1.00000    1.000
_cell_measurement_wavelength    1.541874
_cell_measurement_radiation   'x-rays'
_exptl_crystal_density_diffrn    5.373000
loop_
_pd_peak_d_spacing
_pd_peak_intensity
     4.884500          1.01
     4.784000         61.16
     4.350398          3.41
     3.417777         69.21
     3.026000          4.74
     2.890506        100.90
     2.766997        280.85
     2.670471       1000.00
     2.572369         30.88
     2.557356         27.61
     2.484157        110.48
     2.473989        305.02
     2.442250        236.21
     2.392000         26.73
     2.366377          3.96
     2.265614         14.88
     2.216665        215.18
     2.175199          0.43
     2.159470        521.81
     2.148237        133.74
     2.141770         13.26
     2.011254        385.32
     2.002266          0.05
     1.939038          0.00
     1.900488          2.98
     1.876519         26.84
     1.864071          8.69
     1.842828         84.78
     1.820207         10.96
     1.781745         31.16
     1.766223         63.21
     1.751697          0.47
     1.708888         11.89
     1.641390          2.13
     1.632608          7.43
     1.628167          0.00
     1.625875         38.38
     1.617758         38.15
     1.605093          0.30
     1.595618        203.83
     1.594667        114.98
     1.552551        105.23
     1.541346         51.67
     1.535360         37.38
     1.515924          1.56
     1.513000         88.08
     1.506289         13.02
     1.495174         60.31
     1.488002          1.30
     1.477246          1.91
     1.459452        146.59
     1.450133        165.02
     1.448513        106.41
     1.445253          2.20
     1.442574          1.41
     1.433795          0.73
     1.429042          0.18
     1.427099          0.12
     1.417962          7.75
     1.410758          2.70
     1.396274         17.78
     1.383499          8.66
     1.373437          2.40
     1.372123         13.10
     1.358227          0.60
     1.355359          0.02
     1.353790         23.48
     1.353395          7.54
     1.348460          0.49
     1.345954          2.81
     1.335235         78.43
     1.318945          0.61
     1.316400         96.28
     1.316290         15.38
     1.307724          3.19
     1.294496         16.50
     1.286185         38.02
     1.278678          0.17
     1.274719          0.82
     1.267863         13.00
     1.267288         14.35
     1.260425         31.66
     1.256316         15.32
     1.245863         28.39
     1.242078          4.29
     1.240050          1.70
     1.236995          7.13
     1.235666          0.09
     1.229787          0.14
     1.225035         17.04
     1.221596          0.33
     1.221125         22.59
     1.211300         22.87
     1.207037          2.04
     1.196252          4.83
     1.196000          0.02
     1.192840          0.04
     1.192758          0.04
     1.190206          1.25
     1.187011          0.79
     1.183189          7.52
     1.178181          1.61
     1.177720          1.50
     1.163449         22.63
     1.161683          2.35
     1.160521          6.87
     1.153288          9.97
     1.147440          4.51
     1.143761          2.97
     1.140394          1.18
     1.139259          1.15
     1.132807          4.01
     1.132397          0.01
     1.124548          0.14
     1.120057         20.78
     1.119833          0.18
     1.115089          0.23
     1.112274          4.79
     1.109665          1.61
     1.108333          0.03
     1.105134         36.53
     1.101947          2.04
     1.100971          0.67
     1.097588         34.44
     1.090726         14.08
     1.087600          0.18
     1.084511          0.50
     1.079735          8.23
     1.074118         10.88
     1.070885          0.03
     1.069915          3.93
     1.067472          4.04
     1.067129          4.72
     1.066198          3.26
     1.056595         15.87
     1.052565         26.70
     1.050353          0.02
     1.046918         53.63
     1.046863          2.35
     1.040094         14.25
     1.038791         22.68
     1.029392         12.26
     1.025823          2.94
     1.023498          2.69
     1.021702          0.89
     1.019978          5.12
     1.015926          2.22
     1.014360          1.88
     1.012239          5.18
     1.008833          4.12
     1.008667          1.91
##############################################################################
###                            Comments                                    ###
##############################################################################
###   Diffraction pattern calculated by Match!. 
###   I/Ic calculated by Match!. 
###   Space group has been derived from given symmetry operations. 
##############################################################################


