##############################################################################
###               Crystal structure data exported by Match!                ###
##############################################################################
###                           Data published by:                           ###
###                                                                        ###
###               COD (Crystallography Open Database)
##############################################################################
data_9009202
_citation_journal_full    'Crystal Structures'
_citation_journal_volume  '1'
_citation_page_first  '298'
_citation_page_last   '306'
_citation_year  '1963'
_citation_title  'Second edition. Interscience Publishers, New York, New York'
loop_
_publ_author_name
  'Wyckoff R. W. G.'
_chemical_formula_sum  'Co2 P'
_symmetry_space_group_name_H-M 'P b n m'
_space_group_IT_number 62
_space_group_crystal_system 'orthorhombic'
loop_
_symmetry_equiv_pos_as_xyz
   'x, y, z'
   '-x, -y, z+0.5'
   'x+0.5, -y+0.5, -z'
   '-x+0.5, y+0.5, -z+0.5'
   '-x, -y, -z'
   'x, y, -z+0.5'
   '-x+0.5, y+0.5, z'
   'x+0.5, -y+0.5, z+0.5'
_cell_length_a        6.60800
_cell_length_b        5.64600
_cell_length_c        3.51300
_cell_angle_alpha    90.0000
_cell_angle_beta     90.0000
_cell_angle_gamma    90.0000
loop_
_atom_site_label
_atom_site_fract_x
_atom_site_fract_y
_atom_site_fract_z
_atom_site_occupancy
_atom_site_B_iso_or_equiv
p      0.125   0.246   0.250    1.00000    1.000
co      0.065   0.856   0.250    1.00000    1.000
co      -0.166   0.469   0.250    1.00000    1.000
_cell_measurement_wavelength    1.541874
_cell_measurement_radiation   'x-rays'
_exptl_crystal_density_diffrn    7.543000
loop_
_pd_peak_d_spacing
_pd_peak_intensity
     4.292535         12.52
     3.304000         18.84
     3.101899         10.06
     2.851615         37.92
     2.823000         11.04
     2.718625         81.78
     2.596025          0.57
     2.214010       1000.00
     2.200537        503.38
     2.146267         98.43
     2.087815        718.15
     2.052035        313.67
     1.866174        254.13
     1.831502         68.33
     1.810022        233.39
     1.771893        171.71
     1.756500        392.39
     1.736591         96.20
     1.652000         56.59
     1.635311        156.46
     1.625662          1.22
     1.609008         35.28
     1.585523         32.33
     1.556767         54.19
     1.550950          3.07
     1.495549          8.37
     1.491376          2.48
     1.482552          0.08
     1.454785          0.14
     1.445152          5.62
     1.430845         16.33
     1.425807          0.05
     1.411500          2.54
     1.380360         27.71
     1.359312         33.86
     1.334401        116.07
     1.325144          9.60
     1.321140          4.19
     1.309733          3.48
     1.298012         33.44
     1.286816         19.85
     1.284741         25.24
     1.260530        106.59
     1.241539          0.12
     1.236963         59.82
     1.234934         46.88
     1.217559         24.74
     1.208304          0.31
     1.203389         32.08
     1.196928         39.38
     1.196892         89.38
     1.188427          4.23
     1.176952         18.52
     1.170586        124.76
     1.153035          0.21
     1.132972         39.76
     1.129718          2.57
     1.125754          9.19
     1.113065          3.20
     1.109358         11.45
     1.107005          0.16
     1.101333          0.52
     1.100269          2.24
     1.085327         20.65
     1.083225         61.80
     1.081636         31.40
     1.081562          0.03
     1.080960         18.99
     1.073134         12.49
     1.068519          4.56
     1.067431         54.59
     1.061079         96.35
     1.043907         28.71
     1.038057         17.41
     1.033966         26.11
     1.033681         21.27
     1.033156          3.75
     1.027954          6.92
     1.026316          4.76
     1.026017         18.30
     1.022277          4.97
     1.017052         21.21
     1.013847          0.11
##############################################################################
###                            Comments                                    ###
##############################################################################
###   Diffraction pattern calculated by Match!. 
###   I/Ic calculated by Match!. 
##############################################################################


