##############################################################################
###               Crystal structure data exported by Match!                ###
##############################################################################
###                           Data published by:                           ###
###                                                                        ###
###               COD (Crystallography Open Database)
##############################################################################
data_4124030
_citation_journal_full    'Journal of the American Chemical Society'
_citation_journal_volume  '126'
_citation_page_first  '9769'
_citation_page_last   '9775'
_citation_year  '2004'
_citation_title  'Chemical evaluation of hypothetical uninodal zeolites'
loop_
_publ_author_name
  'Foster M.D.'
  'Friedrichs O.D.'
  'Bell R.G.'
  'Klinowski J.'
  'Paz F.A.A.'
_chemical_formula_sum  'O2 Si'
_chemical_name_common  'Silica'
_symmetry_space_group_name_H-M 'I m -3 m'
_space_group_IT_number 229
_space_group_crystal_system 'cubic'
loop_
_symmetry_equiv_pos_as_xyz
   'x, y, z'
   'x+0.5, y+0.5, z+0.5'
   '-y, x, z'
   '-y+0.5, x+0.5, z+0.5'
   '-x, -y, z'
   '-x+0.5, -y+0.5, z+0.5'
   'y, -x, z'
   'y+0.5, -x+0.5, z+0.5'
   'x, -z, y'
   'x+0.5, -z+0.5, y+0.5'
   'x, -y, -z'
   'x+0.5, -y+0.5, -z+0.5'
   'x, z, -y'
   'x+0.5, z+0.5, -y+0.5'
   'z, y, -x'
   'z+0.5, y+0.5, -x+0.5'
   '-x, y, -z'
   '-x+0.5, y+0.5, -z+0.5'
   '-z, y, x'
   '-z+0.5, y+0.5, x+0.5'
   'z, x, y'
   'z+0.5, x+0.5, y+0.5'
   'y, z, x'
   'y+0.5, z+0.5, x+0.5'
   '-y, -z, x'
   '-y+0.5, -z+0.5, x+0.5'
   'z, -x, -y'
   'z+0.5, -x+0.5, -y+0.5'
   '-y, z, -x'
   '-y+0.5, z+0.5, -x+0.5'
   '-z, -x, y'
   '-z+0.5, -x+0.5, y+0.5'
   '-z, x, -y'
   '-z+0.5, x+0.5, -y+0.5'
   'y, -z, -x'
   'y+0.5, -z+0.5, -x+0.5'
   'y, x, -z'
   'y+0.5, x+0.5, -z+0.5'
   '-y, -x, -z'
   '-y+0.5, -x+0.5, -z+0.5'
   '-x, z, y'
   '-x+0.5, z+0.5, y+0.5'
   '-x, -z, -y'
   '-x+0.5, -z+0.5, -y+0.5'
   'z, -y, x'
   'z+0.5, -y+0.5, x+0.5'
   '-z, -y, -x'
   '-z+0.5, -y+0.5, -x+0.5'
   '-x, -y, -z'
   '-x+0.5, -y+0.5, -z+0.5'
   'y, -x, -z'
   'y+0.5, -x+0.5, -z+0.5'
   'x, y, -z'
   'x+0.5, y+0.5, -z+0.5'
   '-y, x, -z'
   '-y+0.5, x+0.5, -z+0.5'
   '-x, z, -y'
   '-x+0.5, z+0.5, -y+0.5'
   '-x, y, z'
   '-x+0.5, y+0.5, z+0.5'
   '-x, -z, y'
   '-x+0.5, -z+0.5, y+0.5'
   '-z, -y, x'
   '-z+0.5, -y+0.5, x+0.5'
   'x, -y, z'
   'x+0.5, -y+0.5, z+0.5'
   'z, -y, -x'
   'z+0.5, -y+0.5, -x+0.5'
   '-z, -x, -y'
   '-z+0.5, -x+0.5, -y+0.5'
   '-y, -z, -x'
   '-y+0.5, -z+0.5, -x+0.5'
   'y, z, -x'
   'y+0.5, z+0.5, -x+0.5'
   '-z, x, y'
   '-z+0.5, x+0.5, y+0.5'
   'y, -z, x'
   'y+0.5, -z+0.5, x+0.5'
   'z, x, -y'
   'z+0.5, x+0.5, -y+0.5'
   'z, -x, y'
   'z+0.5, -x+0.5, y+0.5'
   '-y, z, x'
   '-y+0.5, z+0.5, x+0.5'
   '-y, -x, z'
   '-y+0.5, -x+0.5, z+0.5'
   'y, x, z'
   'y+0.5, x+0.5, z+0.5'
   'x, -z, -y'
   'x+0.5, -z+0.5, -y+0.5'
   'x, z, y'
   'x+0.5, z+0.5, y+0.5'
   '-z, y, -x'
   '-z+0.5, y+0.5, -x+0.5'
   'z, y, x'
   'z+0.5, y+0.5, x+0.5'
_cell_length_a       20.34791
_cell_length_b       20.34791
_cell_length_c       20.34791
_cell_angle_alpha    90.0000
_cell_angle_beta     90.0000
_cell_angle_gamma    90.0000
_cell_formula_units_Z 96
loop_
_atom_site_label
_atom_site_fract_x
_atom_site_fract_y
_atom_site_fract_z
_atom_site_occupancy
_atom_site_B_iso_or_equiv
o      0.500   0.929   0.172    1.00000    1.000
o      0.392   0.877   0.123    1.00000    1.000
o      0.394   0.000   0.163    1.00000    1.000
o      0.402   0.902   0.750    1.00000    1.000
si      0.578   0.073   0.823    1.00000    1.000
_cell_measurement_wavelength    1.541874
_cell_measurement_radiation   'x-rays'
_exptl_crystal_density_diffrn    1.136000
loop_
_pd_peak_d_spacing
_pd_peak_intensity
    14.388145       1000.00
    10.173955        103.42
     8.306999        185.12
     7.194073         42.56
     6.434574          1.96
     5.873936         43.24
     5.438208          6.66
     5.086977         69.20
     4.796048          7.98
     4.549931          3.96
     4.338189          0.32
     4.153500          2.45
     3.990553         54.21
     3.715003         25.33
     3.597036          2.19
     3.489638          0.23
     3.391318          9.77
     3.300867         26.92
     3.217287         16.83
     3.139751          1.54
     3.067563         38.35
     3.000136          3.25
     2.936968          0.16
     2.877629         11.85
     2.821747          1.59
     2.769000         14.24
     2.719104          1.02
     2.671811          3.05
     2.584187          5.34
     2.543489          2.76
     2.504655          7.34
     2.467547          3.37
     2.432040          2.20
     2.398024          0.83
     2.365396          2.80
     2.334065         18.80
     2.303947          0.97
     2.274965          2.58
     2.247051          4.22
     2.220139          0.11
     2.194172          2.86
     2.169094          0.87
     2.144858          2.33
     2.098727          2.59
     2.076750          3.43
     2.055449          3.10
     2.034791          2.25
     2.014743          2.71
     1.995277          0.72
     1.976364          0.29
     1.957979          1.63
     1.940097          1.80
     1.905756          3.37
     1.889256          0.76
     1.873177          0.92
     1.857502          0.59
     1.842213          4.00
     1.812736          1.53
     1.798518          9.06
     1.784630          0.28
     1.771058          0.86
     1.757792          2.08
     1.744819          1.27
     1.732129          1.43
     1.719712          1.20
     1.707559          0.33
     1.695659          9.46
     1.684005          6.14
     1.672588          1.08
     1.661400          1.92
     1.650433          0.32
     1.639681          0.70
     1.618793          0.48
     1.608644          0.42
     1.598683          1.11
     1.588905          1.10
     1.579304          2.58
     1.569875          0.12
     1.560613          2.83
     1.551514          0.08
     1.542571          2.72
     1.533781          0.35
     1.525140          1.69
     1.516644          1.12
     1.508287          0.31
     1.500068          1.36
     1.491981          1.48
     1.476193          0.11
     1.468484          0.28
     1.460895          1.92
     1.453422          0.06
     1.446063          1.16
     1.438815          0.96
     1.431674          0.65
     1.424639          2.19
     1.417706          4.04
     1.410874          5.77
     1.404139          0.02
     1.397500          0.41
     1.390954          0.38
     1.384500          1.53
     1.378134          2.64
     1.365662          2.85
     1.359552          1.19
     1.353523          0.24
     1.347573          0.25
     1.341701          2.31
     1.335906          2.09
     1.330184          4.69
     1.324536          6.04
     1.318959          0.23
     1.308013          1.11
     1.302641          0.62
     1.297335          3.05
     1.292094          0.30
     1.286915          0.63
     1.276741          2.13
     1.271744          0.48
     1.266806          1.13
     1.261924          1.65
##############################################################################
###                            Comments                                    ###
##############################################################################
###   Diffraction pattern calculated by Match!. 
###   I/Ic calculated by Match!. 
##############################################################################


