##############################################################################
###               Crystal structure data exported by Match!                ###
##############################################################################
###                           Data published by:                           ###
###                                                                        ###
###               COD (Crystallography Open Database)
##############################################################################
data_1011203
_citation_journal_full    'Zeitschrift fuer Kristallographie, Kristallgeometrie, Kristallphysik, Kristallchemie (-144,1977)'
_citation_journal_volume  '66'
_citation_page_first  '517'
_citation_page_last   '546'
_citation_year  '1927'
_citation_title  'Die Kristallstruktur von Skutterdit und Speiskobalt-Chloanthit.'
loop_
_publ_author_name
  'Oftedal I'
_chemical_formula_sum  'As3 Co'
_chemical_name_mineral  'Skutterudite'
_chemical_name_common  'Cobalt arsenide (1/3)'
_symmetry_space_group_name_H-M 'I m -3'
_space_group_IT_number 204
_space_group_crystal_system 'cubic'
loop_
_symmetry_equiv_pos_as_xyz
   'x, y, z'
   'x+0.5, y+0.5, z+0.5'
   'z, x, y'
   'z+0.5, x+0.5, y+0.5'
   'y, z, x'
   'y+0.5, z+0.5, x+0.5'
   '-y, -z, x'
   '-y+0.5, -z+0.5, x+0.5'
   'z, -x, -y'
   'z+0.5, -x+0.5, -y+0.5'
   '-y, z, -x'
   '-y+0.5, z+0.5, -x+0.5'
   '-z, -x, y'
   '-z+0.5, -x+0.5, y+0.5'
   '-z, x, -y'
   '-z+0.5, x+0.5, -y+0.5'
   'y, -z, -x'
   'y+0.5, -z+0.5, -x+0.5'
   '-x, -y, z'
   '-x+0.5, -y+0.5, z+0.5'
   'x, -y, -z'
   'x+0.5, -y+0.5, -z+0.5'
   '-x, y, -z'
   '-x+0.5, y+0.5, -z+0.5'
   '-x, -y, -z'
   '-x+0.5, -y+0.5, -z+0.5'
   '-z, -x, -y'
   '-z+0.5, -x+0.5, -y+0.5'
   '-y, -z, -x'
   '-y+0.5, -z+0.5, -x+0.5'
   'y, z, -x'
   'y+0.5, z+0.5, -x+0.5'
   '-z, x, y'
   '-z+0.5, x+0.5, y+0.5'
   'y, -z, x'
   'y+0.5, -z+0.5, x+0.5'
   'z, x, -y'
   'z+0.5, x+0.5, -y+0.5'
   'z, -x, y'
   'z+0.5, -x+0.5, y+0.5'
   '-y, z, x'
   '-y+0.5, z+0.5, x+0.5'
   'x, y, -z'
   'x+0.5, y+0.5, -z+0.5'
   '-x, y, z'
   '-x+0.5, y+0.5, z+0.5'
   'x, -y, z'
   'x+0.5, -y+0.5, z+0.5'
_cell_length_a        8.18900
_cell_length_b        8.18900
_cell_length_c        8.18900
_cell_angle_alpha    90.0000
_cell_angle_beta     90.0000
_cell_angle_gamma    90.0000
_cell_formula_units_Z 8
loop_
_atom_site_label
_atom_site_fract_x
_atom_site_fract_y
_atom_site_fract_z
_atom_site_occupancy
_atom_site_B_iso_or_equiv
co      0.250   0.250   0.250    1.00000    1.000
as      0.000   0.350   0.150    1.00000    1.000
_cell_measurement_wavelength    1.541874
_cell_measurement_radiation   'x-rays'
_exptl_crystal_density_diffrn    6.862000
_exptl_crystal_density_meas      6.799000
loop_
_pd_peak_d_spacing
_pd_peak_intensity
     5.790498        179.97
     4.094500         60.05
     3.343145         91.96
     2.895249         20.93
     2.589589       1000.00
     2.363961         25.12
     2.188602        239.04
     2.047250          1.41
     1.930166         77.47
     1.831116        335.24
     1.745901         84.52
     1.671573        166.86
     1.605995        309.91
     1.495100          3.83
     1.447624          1.03
     1.404402         78.43
     1.364833         41.74
     1.328431         10.69
     1.294795         33.02
     1.263590         13.59
     1.234538         36.17
     1.207402         93.94
     1.181980         56.62
     1.158100         35.16
     1.135610         38.74
     1.114382         27.69
     1.094301          0.19
     1.075268         74.47
     1.040004         42.33
     1.023625         19.98
     1.007996         12.90
##############################################################################
###                            Comments                                    ###
##############################################################################
###   from Skutterud, Norway
###   Diffraction pattern calculated by Match!. 
###   I/Ic calculated by Match!. 
##############################################################################


