##############################################################################
###               Crystal structure data exported by Match!                ###
##############################################################################
###                           Data published by:                           ###
###                                                                        ###
###               COD (Crystallography Open Database)
##############################################################################
data_1011081
_citation_journal_full    'Zeitschrift fuer Kristallographie, Kristallgeometrie, Kristallphysik,Kristallchemie (-144,1977)'
_citation_journal_volume  '87'
_citation_page_first  '185'
_citation_page_last   '204'
_citation_year  '1934'
_citation_title  'The crystal structure of Hydrargillite Al (O H)3'
loop_
_publ_author_name
  'Megaw H D'
_chemical_formula_sum  'Al H3 O3'
_chemical_name_mineral  'Gibbsite'
_chemical_name_common  'Aluminium hydroxide'
_symmetry_space_group_name_H-M 'P 1 21/n 1'
_space_group_IT_number 14
_space_group_crystal_system 'monoclinic'
loop_
_symmetry_equiv_pos_as_xyz
   'x, y, z'
   '-x+0.5, y+0.5, -z+0.5'
   '-x, -y, -z'
   'x+0.5, -y+0.5, z+0.5'
_cell_length_a        8.64100
_cell_length_b        5.07000
_cell_length_c        9.72000
_cell_angle_alpha    90.0000
_cell_angle_beta     85.4300
_cell_angle_gamma    90.0000
_cell_formula_units_Z 8
loop_
_atom_site_label
_atom_site_fract_x
_atom_site_fract_y
_atom_site_fract_z
_atom_site_occupancy
_atom_site_B_iso_or_equiv
al      0.177   0.520   -0.005    1.00000    1.000
al      0.333   0.020   -0.005    1.00000    1.000
o      0.182   0.202   -0.110    1.00000    1.000
o      0.682   0.672   -0.110    1.00000    1.000
o      0.515   0.132   -0.110    1.00000    1.000
o      -0.015   0.632   -0.110    1.00000    1.000
o      0.298   0.702   -0.100    1.00000    1.000
o      0.838   0.172   -0.100    1.00000    1.000
_cell_measurement_wavelength    1.541874
_cell_measurement_radiation   'x-rays'
_exptl_crystal_density_diffrn    2.346000
_exptl_crystal_density_meas      2.420000
loop_
_pd_peak_d_spacing
_pd_peak_intensity
     6.708384          1.73
     6.196990          0.45
     4.844549       1000.00
     4.492164          0.00
     4.369293        350.81
     4.306764        202.69
     4.044769          0.13
     3.924046          0.37
     3.502604          0.00
     3.354192         66.88
     3.311860         79.97
     3.282367          1.97
     3.181287         77.52
     3.167828          0.48
     3.106569          0.02
     3.098495         62.97
     3.052990          5.04
     2.947877          1.53
     2.814621          8.92
     2.797411          9.26
     2.723961          0.02
     2.694980          3.73
     2.648863          2.35
     2.643852          0.01
     2.548417          0.76
     2.535000          0.32
     2.498372          3.04
     2.460843        119.90
     2.452451        117.48
     2.431869          0.21
     2.422274         26.71
     2.379679         99.00
     2.375380          0.93
     2.371337          2.34
     2.346279          0.01
     2.285989         68.63
     2.246082         59.88
     2.236128          5.48
     2.235277          2.30
     2.193277          1.84
     2.187021         13.11
     2.185637          0.00
     2.184646          0.24
     2.160310         63.00
     2.155770          8.73
     2.154063          4.59
     2.153382          0.01
     2.149871          0.42
     2.112901          0.04
     2.083099          4.07
     2.065663          5.52
     2.045968        125.05
     2.042852          4.44
     2.028656          6.03
     2.022384         15.02
     2.008153          2.77
     1.994103        109.94
     1.982016          2.68
     1.970384          0.07
     1.964068          0.30
     1.962023         10.05
     1.923672          0.13
     1.922056          0.16
     1.914434          8.06
     1.912981         82.66
     1.912016          1.62
     1.900310          4.59
     1.894821          0.32
     1.883638          1.36
     1.883476          7.38
     1.859113          1.66
     1.846483          0.24
     1.844473          0.31
     1.810108          0.00
     1.802670        137.03
     1.801671          0.14
     1.798562          0.05
     1.789024          0.52
     1.776530          0.07
     1.751302        122.35
     1.747374          1.48
     1.745464          0.20
     1.738191          0.57
     1.735824          4.72
     1.719888          0.03
     1.714926          0.65
     1.697205          6.04
     1.681791        100.47
     1.677096          7.83
     1.676942          0.78
     1.673283          0.00
     1.669066          0.16
     1.664864          0.00
     1.658381          6.38
     1.655930         27.37
     1.641183          4.31
     1.638796          3.07
     1.636623          4.26
     1.634561          2.41
     1.631118         14.57
     1.630457          2.77
     1.628726          2.68
     1.626044          0.81
     1.614850          0.01
     1.602193          1.12
     1.601341          0.92
     1.595694          0.00
     1.592244          0.95
     1.590643         27.97
     1.588980          0.99
     1.585368          2.11
     1.583914          3.11
     1.582372         11.97
     1.576425          6.91
     1.573211          5.15
     1.572928          0.28
     1.561674          5.63
     1.553285          3.42
     1.549972          0.02
     1.549247          8.27
     1.545774          0.04
     1.539530          1.38
     1.538686          0.00
     1.535016          5.32
     1.534946          1.15
     1.532407          0.72
     1.526495          4.40
     1.511746          9.57
     1.509252          2.44
     1.502291          2.22
     1.500375          1.20
     1.499166          0.49
     1.497388          0.00
     1.495185          2.91
     1.485149          0.06
     1.484545          4.16
     1.483661          3.08
     1.482253          1.72
     1.481619          0.17
     1.479683          0.27
     1.473938          0.88
     1.472071          0.48
     1.466151          3.18
     1.458241          0.41
     1.456431         98.38
     1.448884          0.01
     1.439377          0.10
     1.435588         45.17
     1.431769          0.01
     1.430831          0.13
     1.428502          2.28
     1.424837          0.66
     1.423241          0.32
     1.421451          0.17
     1.415341          0.40
     1.413687          2.81
     1.410572         29.29
     1.407310         16.25
     1.402885          6.48
     1.401224         37.80
     1.398706          3.57
     1.398408          0.12
     1.396491          1.31
     1.394037          0.05
     1.391999          0.06
     1.386004          0.01
     1.384008          0.26
     1.382344          0.92
     1.381283          3.27
     1.379477         23.77
     1.378293          2.84
     1.361980         34.07
     1.359433          1.71
     1.358720          5.20
     1.356039          0.08
     1.353041          0.05
     1.349879          0.55
     1.348256          0.01
     1.347490         10.17
     1.344370          1.18
     1.343191          1.19
     1.341677          0.36
     1.337445          0.25
     1.337263          0.57
     1.336546          0.04
     1.335289          0.00
     1.335155          0.51
     1.331534          1.26
     1.329461          7.08
     1.325933          0.04
     1.324431          8.12
     1.322376          0.00
     1.321926          1.58
     1.315275         25.47
     1.308480          0.31
     1.308018          5.24
     1.308015          0.16
     1.306744          0.66
     1.304436          0.32
     1.304062          0.15
     1.302280          0.83
     1.302166          0.91
     1.299463          0.01
     1.298466          1.64
     1.297030          0.05
     1.291662          0.30
     1.287610          0.53
     1.280548          0.01
     1.274208          9.52
     1.273674          0.00
     1.273001          0.79
     1.271075          0.03
     1.269632          0.12
     1.267500          1.17
     1.266264          3.02
     1.265097          0.20
     1.263878          0.15
     1.256792          3.68
     1.253996          2.05
     1.251235          0.78
     1.250533          0.04
     1.249971          2.29
     1.249186          2.78
     1.248539          0.51
     1.247992         14.96
     1.245464          0.51
     1.245190          2.55
     1.241791          0.80
     1.241559          2.73
     1.239398          0.59
     1.239158          0.00
     1.236206          0.28
     1.233040          0.07
     1.230421          7.74
     1.228180          4.59
     1.226483          0.01
     1.226226          7.08
     1.217416          2.36
     1.216480          0.14
     1.215934          9.57
     1.214857         10.37
     1.214756          0.82
     1.211137         16.36
     1.210584          1.50
     1.209838          0.84
     1.209699          0.27
     1.209254          0.43
     1.208722          0.29
     1.208630          0.07
     1.206407          7.79
     1.205438          1.26
     1.204350          0.56
     1.203946          0.00
     1.203132          0.67
     1.199727          0.12
     1.198116          1.09
     1.195789          2.78
     1.194211          0.51
     1.193967          0.01
     1.193479          4.01
     1.193241          6.04
     1.191484          1.07
     1.191198          0.30
     1.190903          1.03
     1.190422          0.00
     1.189840          6.96
     1.189056          0.94
     1.187690          2.23
     1.187540          0.00
     1.186279          4.18
     1.185832          0.10
     1.185669          3.00
     1.182442          0.69
     1.181624          1.24
     1.179890          5.57
     1.179464          3.03
     1.177992          0.00
     1.176669          9.75
     1.176028          0.03
     1.175769          0.18
     1.173576          1.07
     1.173140          3.36
     1.167899          0.08
     1.167535          0.01
     1.165929          0.87
     1.164426          1.52
     1.162175          0.78
     1.159538          0.12
     1.159349          0.00
     1.155719          0.01
     1.155633          4.17
     1.155172          3.49
     1.151393          1.41
     1.150783          0.36
     1.148433          0.00
     1.148185          2.06
     1.148007          0.17
     1.146977          0.00
     1.146494          1.02
     1.143621          0.48
     1.142994         16.03
     1.142432          1.49
     1.142297          0.22
     1.142007          0.08
     1.140581          1.18
     1.138813          4.69
     1.135992          0.01
     1.129610          1.42
     1.123609          0.00
     1.123041         12.96
     1.122324          0.08
     1.120759          3.07
     1.120553          0.06
     1.119561          0.01
     1.118927          1.71
     1.118064          0.34
     1.117639          0.56
     1.114488          0.14
     1.113445          0.20
     1.110818          0.43
     1.110017          2.24
     1.108828          1.08
     1.108379          1.28
     1.106982          0.17
     1.106806          0.03
     1.106599          3.08
     1.105149          0.76
     1.104765          1.30
     1.103953          0.44
     1.102677          0.02
     1.097662          0.12
     1.096992          0.41
     1.096639          0.04
     1.096369          0.03
     1.094649          0.63
     1.094148          1.37
     1.094122          0.11
     1.093993          0.23
     1.093511          0.17
     1.092819          2.73
     1.092323          3.00
     1.091830          0.33
     1.091762          0.24
     1.091249          0.24
     1.091043          1.08
     1.090364          0.00
     1.086117          0.02
     1.084746          0.11
     1.081448          0.00
     1.080596          0.00
     1.080335          0.00
     1.080155         11.09
     1.079925          0.15
     1.078886          0.22
     1.078382          0.31
     1.077885          1.13
     1.077032          0.07
     1.076691          3.50
     1.074935          0.95
     1.074525          0.07
     1.071945          1.51
     1.070990          0.05
     1.070834          0.00
     1.070765          1.03
     1.069244          1.82
     1.068930          0.00
     1.062752          0.89
     1.061331          2.18
     1.060743          0.31
     1.060429          0.59
     1.059240          0.27
     1.058404          0.01
     1.057932          0.17
     1.056615          0.69
     1.056450          0.98
     1.055943          0.47
     1.055915          0.35
     1.055258          0.18
     1.054787          0.30
     1.054724          0.42
     1.054526          0.19
     1.053583          0.20
     1.053204          0.21
     1.053087          0.00
     1.052090          0.25
     1.050797          0.19
     1.047675          0.09
     1.047263          0.05
     1.046662          0.17
     1.046230          0.30
     1.041857          0.09
     1.041549          0.57
     1.040741          0.01
     1.040555          0.04
     1.039335          0.35
     1.038378          0.25
     1.035626          0.01
     1.035523          0.00
     1.035271          1.24
     1.035101          0.16
     1.033747          2.03
     1.033016          0.14
     1.032832          0.56
     1.027776          1.10
     1.027226          0.00
     1.025136          0.08
     1.024890          0.22
     1.024511          0.48
     1.022984          9.51
     1.022281          0.05
     1.021426          0.01
     1.020935          1.62
     1.020644          0.00
     1.020348          0.09
     1.019687          0.08
     1.018280          0.16
     1.018162          0.95
     1.017663          0.95
     1.017509          0.33
     1.014577          0.47
     1.014328          0.56
     1.012906          0.02
     1.012045          0.85
     1.011192          0.01
     1.010355          0.08
     1.009525          2.88
     1.009424          0.00
     1.008649          1.65
     1.008492          0.00
     1.007046          0.07
##############################################################################
###                            Comments                                    ###
##############################################################################
###   from Langesundsfjord, Brevig, Norway
###   Diffraction pattern calculated by Match!. 
###   I/Ic calculated by Match!. 
##############################################################################


