##############################################################################
###               Crystal structure data exported by Match!                ###
##############################################################################
###                           Data published by:                           ###
###                                                                        ###
###               COD (Crystallography Open Database)
##############################################################################
data_9013571
_citation_journal_full    'American Mineralogist'
_citation_journal_volume  '94'
_citation_page_first  '451'
_citation_page_last   '460'
_citation_year  '2009'
_citation_title  'Molecular conformation and anion configuration variations for As4S4 andAs4Se4 in an anion-substituted solid solution Locality: synthetic Note:S1Se1-3'
loop_
_publ_author_name
  'Kyono A.'
_chemical_formula_sum  'As S0.495 Se0.505'
_chemical_name_mineral  'Realgar'
_symmetry_space_group_name_H-M 'P 1 21/n 1'
_space_group_IT_number 14
_space_group_crystal_system 'monoclinic'
loop_
_symmetry_equiv_pos_as_xyz
   'x, y, z'
   '-x+0.5, y+0.5, -z+0.5'
   '-x, -y, -z'
   'x+0.5, -y+0.5, z+0.5'
_cell_length_a        9.46540
_cell_length_b       13.67710
_cell_length_c        6.66350
_cell_angle_alpha    90.0000
_cell_angle_beta    106.5170
_cell_angle_gamma    90.0000
loop_
_atom_site_label
_atom_site_fract_x
_atom_site_fract_y
_atom_site_fract_z
_atom_site_occupancy
_atom_site_B_iso_or_equiv
as      0.118   -0.020   0.759    1.00000    1.902
as      0.424   0.140   0.860    1.00000    1.847
as      0.323   0.129   0.176    1.00000    1.831
as      0.040   0.161   0.708    1.00000    2.029
s      0.343   -0.009   0.697    0.47300    2.092
se      0.343   -0.009   0.697    0.52700    2.092
s      0.214   -0.025   0.118    0.40690    2.060
se      0.214   -0.025   0.118    0.59300    2.060
s      0.241   0.229   0.641    0.62300    2.218
se      0.241   0.229   0.641    0.37700    2.218
s      0.109   0.215   0.055    0.47800    2.400
se      0.109   0.215   0.055    0.52200    2.400
_cell_measurement_wavelength    1.541874
_cell_measurement_radiation   'x-rays'
_exptl_crystal_density_diffrn    4.197000
loop_
_pd_peak_d_spacing
_pd_peak_intensity
     7.561721         70.66
     6.838550         86.10
     6.104256        340.40
     5.788226        606.73
     5.574269        258.25
     5.461455       1000.00
     4.668366        113.41
     4.639762         81.03
     4.553921         12.65
     4.537407         52.05
     4.393822          0.91
     4.306601          5.50
     4.123791        142.75
     4.073833         10.89
     3.839469         20.72
     3.780860        128.73
     3.710993         59.67
     3.655352         70.39
     3.652722          7.43
     3.419275         38.98
     3.251890          3.92
     3.229498        129.86
     3.216050        425.18
     3.199683        501.68
     3.194267        434.99
     3.193815          0.01
     3.137737          7.62
     3.110560        157.31
     3.095437        463.46
     3.052128         15.63
     3.019081        150.78
     3.014642        174.80
     2.989168        245.56
     2.983152          0.39
     2.978858        237.06
     2.960807        483.53
     2.953563         25.56
     2.894113        177.81
     2.819997        276.05
     2.787135         40.49
     2.766384        166.19
     2.752565        621.12
     2.730727        215.73
     2.720534        267.99
     2.685623          1.29
     2.682297        110.57
     2.664998         35.95
     2.619024        191.02
     2.616052         98.69
     2.572159         22.02
     2.560927         65.33
     2.549948        223.59
     2.536240          1.21
     2.520574        110.23
     2.514607          0.06
     2.496244        193.40
     2.475281         59.97
     2.435713        106.66
     2.426565         91.92
     2.383201         93.99
     2.371043          8.17
     2.368753         10.21
     2.356386          1.70
     2.342643         22.54
     2.334183          1.43
     2.327504         63.33
     2.325556          8.45
     2.319881         18.55
     2.311850          4.27
     2.294774          2.20
     2.287212          0.50
     2.279517        177.32
     2.276961          4.37
     2.268704         24.91
     2.265604         50.06
     2.255552         63.97
     2.238122         28.35
     2.230824         39.43
     2.218196        182.13
     2.210835        110.05
     2.196911         43.47
     2.189586         59.88
     2.175334          1.31
     2.162534         99.41
     2.155162          9.26
     2.153715        144.12
     2.153300         47.01
     2.146940          4.25
     2.135999         36.87
     2.135478         46.55
     2.112040         20.28
     2.109972          0.54
     2.104159         17.53
     2.101964          0.73
     2.095785          2.22
     2.077818         62.58
     2.077696          0.18
     2.067591          7.12
     2.067333          9.49
     2.061895         60.30
     2.049757          8.86
     2.045932          2.06
     2.037032          0.49
     2.036916         21.69
     2.034752         39.49
     2.033213          2.71
     2.031113          2.54
     2.028888         18.96
     2.016577         14.99
     2.012602         11.40
     2.005042         69.50
     1.994630         24.18
     1.967400         11.25
     1.953867          0.02
     1.953356          0.39
     1.950254          6.60
     1.948589          3.40
     1.948425         60.59
     1.942239          4.18
     1.933734         40.84
     1.929409          4.02
     1.919734          8.87
     1.919227          2.85
     1.910100         20.52
     1.893080         19.64
     1.891840         27.67
     1.890430          8.72
     1.882801          0.10
     1.879835         53.79
     1.878236        158.41
     1.875203         22.60
     1.872720        179.18
     1.868439          6.25
     1.864934         23.94
     1.860909          1.72
     1.860869          2.16
     1.858090          7.16
     1.855496        106.79
     1.838738          1.32
     1.835515        171.85
     1.835384          3.67
     1.827676         25.47
     1.826361          6.92
     1.824464        236.13
     1.820485          9.97
     1.818312          5.67
     1.807610         45.80
     1.807364        159.52
     1.800717          8.92
     1.799394          3.07
     1.799191          1.89
     1.795491         44.13
     1.794561          0.01
     1.786846         77.53
     1.783860         20.16
     1.780606         18.46
     1.771941          0.25
     1.769275         20.60
     1.761683         29.52
     1.754421          9.52
     1.754232         17.85
     1.748567         86.87
     1.748344         28.90
     1.746256          3.41
     1.732190         15.78
     1.722908        143.65
     1.712731         84.35
     1.709638         69.29
     1.706096          2.11
     1.705268         10.06
     1.701963         78.28
     1.696433         43.94
     1.696098        177.46
     1.691959        111.36
     1.686420         37.33
     1.686284          2.91
     1.686252          1.79
     1.684355          6.74
     1.680350         47.15
     1.680083         42.38
     1.679231          0.31
     1.676805         44.30
     1.666780         16.81
     1.661738         58.02
     1.656188         73.42
     1.652252         11.30
     1.651523          2.53
     1.649607          4.93
     1.646288          9.90
     1.645565         38.71
     1.643354          3.19
     1.642313         10.69
     1.641263         33.16
     1.639550         67.52
     1.632606          0.89
     1.630720          0.00
     1.630599          0.35
     1.628711          4.93
     1.628409          5.74
     1.625945          9.28
     1.617284         30.92
     1.616989         67.52
     1.616601         27.45
     1.614749          3.28
     1.608882          0.11
     1.608025          9.02
     1.604198          0.08
     1.603404          1.19
     1.603263          1.85
     1.603119          7.95
     1.599841         13.79
     1.597875         23.05
     1.597784          8.54
     1.597133          3.21
     1.596908         88.08
     1.589930          0.51
     1.589738         38.31
     1.589653          1.17
     1.586354          5.55
     1.584395          5.17
     1.584117         17.78
     1.581564          0.47
     1.575849         18.88
     1.571337          7.14
     1.568869         38.65
     1.565277          0.03
     1.561260          0.55
     1.560993         34.48
     1.556655          7.18
     1.556122          2.37
     1.555956          4.73
     1.555280          6.56
     1.555177          7.91
     1.547719          0.83
     1.546587          3.39
     1.545117          5.84
     1.537903         24.10
     1.536793          0.25
     1.535402         63.31
     1.533774          3.19
     1.533650          9.18
     1.533522          3.93
     1.526064         67.11
     1.523648          0.03
     1.521919          3.65
     1.520281          2.77
     1.517974         22.56
     1.516652         37.50
     1.516511         71.64
     1.512469          2.02
     1.512465          6.06
     1.512344          2.16
     1.509541          5.24
     1.508491         19.33
     1.507321         26.38
     1.507316          6.84
     1.504990          4.64
     1.503305          0.01
     1.498807          2.55
     1.496550          6.75
     1.494584         39.59
     1.494447         22.66
     1.492790         39.68
     1.491576          0.16
     1.489937          3.45
     1.489929          0.54
     1.489429         16.89
     1.489200         43.86
     1.488370          9.39
     1.483264          3.63
     1.480497          1.41
     1.480403         75.03
     1.478425          2.55
     1.476782         12.82
     1.476687          0.55
     1.474666          1.96
     1.471896         12.67
     1.470418         28.50
     1.470196         53.64
     1.466810         10.25
     1.466188          5.57
     1.465568         18.05
     1.464607          0.93
     1.459963         34.28
     1.456350          5.41
     1.455716          4.44
     1.455271         13.90
     1.449768          2.51
     1.447142          6.31
     1.447057          5.23
     1.444186          0.16
     1.441005         45.07
     1.439692         22.17
     1.435534          0.02
     1.433749          4.76
     1.433746          3.35
     1.431005          4.92
     1.429214          0.52
     1.427729         17.23
     1.426369          9.24
     1.420215         18.76
     1.419973          9.42
     1.419872          1.28
     1.416218          2.33
     1.410682          5.70
     1.409999          2.29
     1.409322          3.13
     1.409143          0.23
     1.408031          5.50
     1.407482          7.35
     1.407190         15.51
     1.406719          9.85
     1.399431          0.37
     1.399239          0.38
     1.393567          6.23
     1.390409          1.36
     1.388003          0.24
     1.386799          3.68
     1.386241          0.08
     1.385643          0.98
     1.385364         31.70
     1.384504          3.31
     1.383192          1.70
     1.382049         44.21
     1.381413          1.11
     1.380910          9.65
     1.379247         10.08
     1.379214          0.29
     1.379028          6.36
     1.376282          7.03
     1.376096          0.28
     1.374988          1.70
     1.374597          0.10
     1.372291          5.24
     1.367710          1.37
     1.365364          6.08
     1.365327          0.00
     1.364148          0.00
     1.363555          1.30
     1.360378          7.70
     1.360267          1.66
     1.359593          2.79
     1.358468          2.10
     1.357944          0.41
     1.354116          2.39
     1.352436          0.27
     1.351400          0.07
     1.351141          5.57
     1.347356          4.85
     1.347046         19.76
     1.346300          0.28
     1.345501          2.10
     1.343670          2.29
     1.342812          0.74
     1.341149         35.00
     1.340865          0.01
     1.339432          0.04
     1.337436          3.92
     1.337404         12.54
     1.335055          6.11
     1.334620          4.29
     1.333160         12.88
     1.333008          0.38
     1.332697          8.68
     1.332499          0.06
     1.329853          0.04
     1.329771          1.06
     1.328434          0.99
     1.327828          0.83
     1.326413          7.96
     1.326154         26.38
     1.325203          0.14
     1.325041          0.97
     1.323614          1.12
     1.321942          0.00
     1.319087          0.04
     1.318017          1.60
     1.317534          5.91
     1.316420          0.01
     1.316374          3.67
     1.312995          0.00
     1.312377          0.55
     1.311940          0.81
     1.311898          8.79
     1.311419          2.49
     1.309512          4.32
     1.308937          0.54
     1.308087          9.77
     1.308026          2.55
     1.307462          0.02
     1.307228          0.88
     1.304060          6.14
     1.302024          0.06
     1.297728          0.32
     1.296135          1.31
     1.295212          2.62
     1.295080         12.13
     1.294199          4.69
     1.292109          2.04
     1.291925         13.40
     1.290832          9.62
     1.290617          0.69
     1.286908          1.04
     1.286486          0.12
     1.286080          0.03
     1.284559          0.07
     1.282188          1.74
     1.280832          5.29
     1.280464          2.94
     1.279823          4.76
     1.279162          4.91
     1.277683          0.09
     1.275393          0.04
     1.275252          1.71
     1.274974          0.00
     1.274094          8.10
     1.273717          8.54
     1.272168          6.24
     1.272025          1.07
     1.271213          0.95
     1.268807          0.19
     1.268120         14.16
     1.267115          0.12
     1.266167          3.44
     1.265841          1.75
     1.265566          0.01
     1.264796          0.41
     1.263009          0.15
     1.262622          0.02
     1.262594          0.12
     1.260287          1.13
     1.258940          0.63
     1.257826          1.78
     1.257304          1.14
     1.257191          0.42
     1.256800         11.55
     1.256592          2.14
     1.255973          2.68
     1.254072          1.47
     1.253683          1.15
     1.253545          0.84
     1.251058          0.12
     1.251032          1.12
     1.250921          3.14
     1.250741          7.96
     1.249619         20.19
     1.248794          0.51
     1.248147         10.98
     1.248122          0.01
     1.246967          7.78
     1.246838          0.65
     1.246242          0.53
     1.244599          1.14
     1.244534          0.49
     1.244466          7.28
     1.243372          0.68
     1.241712          0.41
     1.237773          4.87
     1.237641          8.95
     1.236998          0.02
     1.236575          0.00
     1.236417          3.25
     1.233092          0.39
     1.232604          1.16
     1.232045         13.05
     1.231864          2.35
     1.230684         18.63
     1.230303          0.45
     1.229815          5.46
     1.226883          1.93
     1.226513          0.27
     1.225228          3.64
     1.224329          0.08
     1.221635         10.91
     1.220851          0.02
     1.220597          0.27
     1.220472          6.22
     1.218451          0.91
     1.218355          3.38
     1.218311          0.23
     1.217857          3.06
     1.217574         15.03
     1.216016          6.63
     1.215765          0.69
     1.213507          0.50
     1.213283          1.40
     1.213209          4.86
     1.212664          7.17
     1.212199          0.36
     1.209988          4.46
     1.208688          4.73
     1.205466          0.18
     1.204427          1.12
     1.202962          6.35
     1.202695          0.01
     1.202207         13.82
     1.202025          1.18
     1.201849          1.70
     1.201606          0.15
     1.200996          4.17
##############################################################################
###                            Comments                                    ###
##############################################################################
###   Diffraction pattern calculated by Match!. 
###   I/Ic calculated by Match!. 
##############################################################################


