##############################################################################
###               Crystal structure data exported by Match!                ###
##############################################################################
###                           Data published by:                           ###
###                                                                        ###
###               COD (Crystallography Open Database)
##############################################################################
data_2300448
_citation_journal_full    'Journal of Applied Crystallography'
_citation_journal_volume  '47(2)'
_citation_page_first  '659'
_citation_page_last   '667'
_citation_year  '2014'
_citation_title  'Simultaneous determination of several crystal structures from powdermixtures: the combination of powder X-ray diffraction, band-targetentropy minimization and Rietveld methods'
loop_
_publ_author_name
  'Schreyer Martin'
  'Guo Liangfeng'
  'Thirunahari Satyanarayana'
  'Gao Feng'
  'Garland Marc'
_chemical_formula_sum  'Al2 O3'
_chemical_name_mineral  'Corundum'
_chemical_name_common  'Aluminium oxide'
_symmetry_space_group_name_H-M 'R -3 c'
_space_group_IT_number 167
_space_group_crystal_system 'trigonal (hexagonal axes)'
loop_
_symmetry_equiv_pos_as_xyz
   'x, y, z'
   'x+0.66667, y+0.33333, z+0.33333'
   'x+0.33333, y+0.66667, z+0.66667'
   '-y, x-y, z'
   '-y+0.66667, x-y+0.33333, z+0.33333'
   '-y+0.33333, x-y+0.66667, z+0.66667'
   '-x+y, -x, z'
   '-x+y+0.66667, -x+0.33333, z+0.33333'
   '-x+y+0.33333, -x+0.66667, z+0.66667'
   'x-y, -y, -z+0.5'
   'x-y+0.66667, -y+0.33333, -z+0.83333'
   'x-y+0.33333, -y+0.66667, -z+0.16667'
   '-x, -x+y, -z+0.5'
   '-x+0.66667, -x+y+0.33333, -z+0.83333'
   '-x+0.33333, -x+y+0.66667, -z+0.16667'
   'y, x, -z+0.5'
   'y+0.66667, x+0.33333, -z+0.83333'
   'y+0.33333, x+0.66667, -z+0.16667'
   '-x, -y, -z'
   '-x+0.66667, -y+0.33333, -z+0.33333'
   '-x+0.33333, -y+0.66667, -z+0.66667'
   'y, -x+y, -z'
   'y+0.66667, -x+y+0.33333, -z+0.33333'
   'y+0.33333, -x+y+0.66667, -z+0.66667'
   'x-y, x, -z'
   'x-y+0.66667, x+0.33333, -z+0.33333'
   'x-y+0.33333, x+0.66667, -z+0.66667'
   '-x+y, y, z+0.5'
   '-x+y+0.66667, y+0.33333, z+0.83333'
   '-x+y+0.33333, y+0.66667, z+0.16667'
   'x, x-y, z+0.5'
   'x+0.66667, x-y+0.33333, z+0.83333'
   'x+0.33333, x-y+0.66667, z+0.16667'
   '-y, -x, z+0.5'
   '-y+0.66667, -x+0.33333, z+0.83333'
   '-y+0.33333, -x+0.66667, z+0.16667'
_cell_length_a        4.75815
_cell_length_b        4.75815
_cell_length_c       12.98970
_cell_angle_alpha    90.0000
_cell_angle_beta     90.0000
_cell_angle_gamma   120.0000
_cell_formula_units_Z 6
loop_
_atom_site_label
_atom_site_fract_x
_atom_site_fract_y
_atom_site_fract_z
_atom_site_occupancy
_atom_site_B_iso_or_equiv
al      0.000   0.000   0.352    1.00000    0.262
o      0.306   0.000   0.250    1.00000    0.168
_cell_measurement_wavelength    1.541874
_cell_measurement_radiation   'x-rays'
_cell_measurement_temperature    298.000000
_exptl_crystal_density_diffrn    3.989000
loop_
_pd_peak_d_spacing
_pd_peak_intensity
     3.479467        608.44
     2.550576        957.14
     2.379076        435.88
     2.164950          5.72
     2.085066       1000.00
     1.963893         13.76
     1.739733        496.06
     1.601212        986.28
     1.546395         26.38
     1.514533         31.71
     1.510664         76.68
     1.404314        391.37
     1.373560        609.72
     1.335813         13.36
     1.275288         15.18
     1.238873        173.68
     1.233977         98.10
     1.192972          8.05
     1.189538         65.76
     1.159822          5.99
     1.147039         59.14
     1.138473          3.19
     1.125578         41.52
     1.123987         29.97
     1.098818         80.80
     1.082475         20.47
     1.078058         96.23
     1.046120          2.39
     1.042533        199.09
     1.017451         27.02
##############################################################################
###                            Comments                                    ###
##############################################################################
###   Diffraction pattern calculated by Match!. 
###   I/Ic calculated by Match!. 
##############################################################################


