##############################################################################
###               Crystal structure data exported by Match!                ###
##############################################################################
###                           Data published by:                           ###
###                                                                        ###
###               COD (Crystallography Open Database)
##############################################################################
data_9000101
_citation_journal_full    'American Mineralogist'
_citation_journal_volume  '46'
_citation_page_first  '1283'
_citation_page_last   '1316'
_citation_year  '1961'
_citation_title  'Crystallographic tables for the rhombohedral carbonates'
loop_
_publ_author_name
  'Graf D. L.'
_chemical_formula_sum  'C Co O3'
_chemical_name_mineral  'Spherocobaltite'
_symmetry_space_group_name_H-M 'R -3 c'
_space_group_IT_number 167
_space_group_crystal_system 'trigonal (hexagonal axes)'
loop_
_symmetry_equiv_pos_as_xyz
   'x, y, z'
   'x+0.66667, y+0.33333, z+0.33333'
   'x+0.33333, y+0.66667, z+0.66667'
   '-y, x-y, z'
   '-y+0.66667, x-y+0.33333, z+0.33333'
   '-y+0.33333, x-y+0.66667, z+0.66667'
   '-x+y, -x, z'
   '-x+y+0.66667, -x+0.33333, z+0.33333'
   '-x+y+0.33333, -x+0.66667, z+0.66667'
   'x-y, -y, -z+0.5'
   'x-y+0.66667, -y+0.33333, -z+0.83333'
   'x-y+0.33333, -y+0.66667, -z+0.16667'
   '-x, -x+y, -z+0.5'
   '-x+0.66667, -x+y+0.33333, -z+0.83333'
   '-x+0.33333, -x+y+0.66667, -z+0.16667'
   'y, x, -z+0.5'
   'y+0.66667, x+0.33333, -z+0.83333'
   'y+0.33333, x+0.66667, -z+0.16667'
   '-x, -y, -z'
   '-x+0.66667, -y+0.33333, -z+0.33333'
   '-x+0.33333, -y+0.66667, -z+0.66667'
   'y, -x+y, -z'
   'y+0.66667, -x+y+0.33333, -z+0.33333'
   'y+0.33333, -x+y+0.66667, -z+0.66667'
   'x-y, x, -z'
   'x-y+0.66667, x+0.33333, -z+0.33333'
   'x-y+0.33333, x+0.66667, -z+0.66667'
   '-x+y, y, z+0.5'
   '-x+y+0.66667, y+0.33333, z+0.83333'
   '-x+y+0.33333, y+0.66667, z+0.16667'
   'x, x-y, z+0.5'
   'x+0.66667, x-y+0.33333, z+0.83333'
   'x+0.33333, x-y+0.66667, z+0.16667'
   '-y, -x, z+0.5'
   '-y+0.66667, -x+0.33333, z+0.83333'
   '-y+0.33333, -x+0.66667, z+0.16667'
_cell_length_a        4.65810
_cell_length_b        4.65810
_cell_length_c       14.95800
_cell_angle_alpha    90.0000
_cell_angle_beta     90.0000
_cell_angle_gamma   120.0000
_cell_formula_units_Z 6
loop_
_atom_site_label
_atom_site_fract_x
_atom_site_fract_y
_atom_site_fract_z
_atom_site_occupancy
_atom_site_B_iso_or_equiv
co      0.000   0.000   0.000    1.00000    1.000
c      0.000   0.000   0.250    1.00000    1.000
o      0.276   0.000   0.250    1.00000    1.000
_cell_measurement_wavelength    1.541874
_cell_measurement_radiation   'x-rays'
_exptl_crystal_density_diffrn    4.216000
loop_
_pd_peak_d_spacing
_pd_peak_intensity
     3.550485        423.91
     2.742446       1000.00
     2.493000          0.14
     2.329050        225.99
     2.110181        159.43
     1.947438        204.42
     1.775243        110.78
     1.701898        288.89
     1.696393        180.38
     1.516861         16.06
     1.493991        129.52
     1.411871        100.60
     1.402490         25.61
     1.371223         39.80
     1.358458          9.19
     1.352866         19.84
     1.344678         97.87
     1.246500         30.24
     1.241158          5.82
     1.201472         27.99
     1.183495         10.91
     1.181639         48.17
     1.164525         18.76
     1.134006          2.49
     1.115723          0.38
     1.106526         15.59
     1.099001         28.24
     1.071891         60.17
     1.067769         31.87
     1.055090         36.42
     1.047948          0.29
     1.032818          7.91
     1.014849          2.46
##############################################################################
###                            Comments                                    ###
##############################################################################
###   Diffraction pattern calculated by Match!. 
###   I/Ic calculated by Match!. 
##############################################################################


