##############################################################################
###               Crystal structure data exported by Match!                ###
##############################################################################
###                           Data published by:                           ###
###                                                                        ###
###               COD (Crystallography Open Database)
##############################################################################
data_1011259
_citation_journal_full    'Zeitschrift fuer Kristallographie, Kristallgeometrie, Kristallphysik,Kristallchemie (-144,1977)'
_citation_journal_volume  '58'
_citation_page_first  '398'
_citation_page_last   '403'
_citation_year  '1923'
_citation_title  'Die Struktur von Zn O.'
loop_
_publ_author_name
  'Weber L'
_chemical_formula_sum  'O Zn'
_chemical_name_mineral  'Zincite'
_chemical_name_common  'Zinc oxide'
_symmetry_space_group_name_H-M 'P 63 m c'
_space_group_IT_number 186
_space_group_crystal_system 'hexagonal'
loop_
_symmetry_equiv_pos_as_xyz
   'x, y, z'
   'x-y, x, z+0.5'
   '-y, x-y, z'
   '-x, -y, z+0.5'
   '-x+y, -x, z'
   'y, -x+y, z+0.5'
   '-x+y, y, z'
   'x, x-y, z'
   '-y, -x, z'
   'y, x, z+0.5'
   'x-y, -y, z+0.5'
   '-x, -x+y, z+0.5'
_cell_length_a        3.35100
_cell_length_b        3.35100
_cell_length_c        5.22600
_cell_angle_alpha    90.0000
_cell_angle_beta     90.0000
_cell_angle_gamma   120.0000
_cell_formula_units_Z 2
loop_
_atom_site_label
_atom_site_fract_x
_atom_site_fract_y
_atom_site_fract_z
_atom_site_occupancy
_atom_site_B_iso_or_equiv
zn      0.333   0.667   0.000    1.00000    1.000
o      0.333   0.667   0.375    1.00000    1.000
_cell_measurement_wavelength    1.541874
_cell_measurement_radiation   'x-rays'
_exptl_crystal_density_diffrn    5.318000
_exptl_crystal_density_meas      5.700000
loop_
_pd_peak_d_spacing
_pd_peak_intensity
     2.902051        523.84
     2.613000        353.11
     2.537113       1000.00
     1.941844        202.48
     1.675500        324.99
     1.595505          0.00
     1.493578        280.88
     1.451026         44.87
     1.410446        235.24
     1.398133        127.85
     1.306500         18.71
     1.268557         37.62
     1.207583          0.00
     1.191337         19.46
     1.114910         82.57
     1.096872         27.96
     1.073482         91.19
     1.030295         47.26
     1.011378         32.83
##############################################################################
###                            Comments                                    ###
##############################################################################
###   synthetic
###   Diffraction pattern calculated by Match!. 
###   I/Ic calculated by Match!. 
###   Space group has been derived from given symmetry operations. 
##############################################################################


