##############################################################################
###               Crystal structure data exported by Match!                ###
##############################################################################
###                           Data published by:                           ###
###                                                                        ###
###               COD (Crystallography Open Database)
##############################################################################
data_4100394
_citation_journal_full    'Journal of the American Chemical Society'
_citation_year  '2005'
_chemical_formula_sum  'Cl2 Cu3.58 H6 O6 Zn0.42'
_chemical_name_common  'zincian paratacamite, syn'
_symmetry_space_group_name_H-M 'R -3 m'
_space_group_IT_number 166
_space_group_crystal_system 'trigonal (hexagonal axes)'
loop_
_symmetry_equiv_pos_as_xyz
   'x, y, z'
   'x+0.66667, y+0.33333, z+0.33333'
   'x+0.33333, y+0.66667, z+0.66667'
   '-y, x-y, z'
   '-y+0.66667, x-y+0.33333, z+0.33333'
   '-y+0.33333, x-y+0.66667, z+0.66667'
   '-x+y, -x, z'
   '-x+y+0.66667, -x+0.33333, z+0.33333'
   '-x+y+0.33333, -x+0.66667, z+0.66667'
   'x-y, -y, -z'
   'x-y+0.66667, -y+0.33333, -z+0.33333'
   'x-y+0.33333, -y+0.66667, -z+0.66667'
   '-x, -x+y, -z'
   '-x+0.66667, -x+y+0.33333, -z+0.33333'
   '-x+0.33333, -x+y+0.66667, -z+0.66667'
   'y, x, -z'
   'y+0.66667, x+0.33333, -z+0.33333'
   'y+0.33333, x+0.66667, -z+0.66667'
   '-x, -y, -z'
   '-x+0.66667, -y+0.33333, -z+0.33333'
   '-x+0.33333, -y+0.66667, -z+0.66667'
   'y, -x+y, -z'
   'y+0.66667, -x+y+0.33333, -z+0.33333'
   'y+0.33333, -x+y+0.66667, -z+0.66667'
   'x-y, x, -z'
   'x-y+0.66667, x+0.33333, -z+0.33333'
   'x-y+0.33333, x+0.66667, -z+0.66667'
   '-x+y, y, z'
   '-x+y+0.66667, y+0.33333, z+0.33333'
   '-x+y+0.33333, y+0.66667, z+0.66667'
   'x, x-y, z'
   'x+0.66667, x-y+0.33333, z+0.33333'
   'x+0.33333, x-y+0.66667, z+0.66667'
   '-y, -x, z'
   '-y+0.66667, -x+0.33333, z+0.33333'
   '-y+0.33333, -x+0.66667, z+0.66667'
_cell_length_a        6.82330
_cell_length_b        6.82330
_cell_length_c       14.03000
_cell_angle_alpha    90.0000
_cell_angle_beta     90.0000
_cell_angle_gamma   120.0000
_cell_formula_units_Z 3
loop_
_atom_site_label
_atom_site_fract_x
_atom_site_fract_y
_atom_site_fract_z
_atom_site_occupancy
_atom_site_B_iso_or_equiv
zn      0.000   0.000   0.000    0.42000    0.631
cu      0.000   0.000   0.000    0.58000    0.631
cu      0.333   0.167   0.167    1.00000    0.702
o      0.127   0.254   0.105    1.00000    1.136
h      0.189   0.377   0.083    1.00000    1.342
cl      0.000   0.000   0.305    1.00000    0.900
_cell_measurement_wavelength    1.541874
_cell_measurement_radiation   'x-rays'
_cell_measurement_temperature    150.000000
_exptl_crystal_density_diffrn    3.768000
loop_
_pd_peak_d_spacing
_pd_peak_intensity
     5.445835       1000.00
     4.676667        155.53
     4.519410         22.35
     3.411650         49.90
     3.016178         16.97
     2.891162        224.01
     2.756195        774.09
     2.722918        167.66
     2.534737          4.63
     2.338333        104.32
     2.259705        634.32
     2.205676         43.24
     2.128188          1.44
     2.034640         92.40
     1.969717          1.80
     1.928777         12.28
     1.898075        103.51
     1.883933          1.38
     1.815278        229.99
     1.747474         35.53
     1.705825        272.52
     1.681268          4.67
     1.658656         36.74
     1.627835         55.95
     1.602548         25.27
     1.595928         14.40
     1.558889          1.71
     1.508089         74.26
     1.506470         13.33
     1.491705        107.16
     1.484811          1.07
     1.469166         32.37
     1.445581         44.93
     1.417883         30.18
     1.415196         11.13
     1.379337         17.30
     1.378098        134.36
     1.365052          6.91
     1.361459         77.76
     1.349368         39.44
     1.331026          1.48
     1.307193         20.34
     1.289482          5.49
     1.268741         30.60
     1.267369         62.42
     1.264491          1.67
     1.246743          8.24
     1.243095         84.70
     1.222382         12.19
     1.220659          0.45
     1.197424          1.65
     1.189173          4.01
     1.188042          1.12
     1.177659          1.54
     1.171002         22.28
     1.169167          8.22
     1.165407          0.00
     1.150748          9.85
     1.137217          5.55
     1.129852         16.15
     1.129171          2.54
     1.122913         23.84
     1.119964          0.08
     1.113204         14.21
     1.107576          8.81
     1.106022          0.70
     1.105016         22.07
     1.102838         35.02
     1.089167          2.84
     1.072565          0.67
     1.065807          3.51
     1.064094         46.58
     1.061669          9.84
     1.058291          8.26
     1.049373          3.99
     1.037575         27.43
     1.022685          0.01
     1.018029         15.33
     1.017320         28.02
     1.015830          1.23
     1.013720          0.10
     1.006559          3.43
##############################################################################
###                            Comments                                    ###
##############################################################################
###   Diffraction pattern calculated by Match!. 
###   I/Ic calculated by Match!. 
##############################################################################


