##############################################################################
###               Crystal structure data exported by Match!                ###
##############################################################################
###                           Data published by:                           ###
###                                                                        ###
###               COD (Crystallography Open Database)
##############################################################################
data_9005741
_citation_journal_full    'European Journal of Mineralogy'
_citation_journal_volume  '17'
_citation_page_first  '805'
_citation_page_last   '812'
_citation_year  '2005'
_citation_title  'Crystal chemical and structural characterization of anunusual CO3-bearing sodalite-group mineralLocality: Mt. Vesuvio, Italy'
loop_
_publ_author_name
  'Ballirano P.'
  'Maras A.'
_chemical_formula_sum  'C0.15 Al3 Ca0.616 Cl0.47 K0.7 Na2.64 O13.986 S0.384 Si3'
_chemical_name_mineral  'Sodalite'
_symmetry_space_group_name_H-M 'P -4 3 n'
_space_group_IT_number 218
_space_group_crystal_system 'cubic'
loop_
_symmetry_equiv_pos_as_xyz
   'x, y, z'
   'y+0.5, -x+0.5, -z+0.5'
   '-x, -y, z'
   '-y+0.5, x+0.5, -z+0.5'
   '-x+0.5, z+0.5, -y+0.5'
   'x, -y, -z'
   '-x+0.5, -z+0.5, y+0.5'
   '-z+0.5, -y+0.5, x+0.5'
   '-x, y, -z'
   'z+0.5, -y+0.5, -x+0.5'
   'z, x, y'
   'y, z, x'
   '-y, -z, x'
   'z, -x, -y'
   '-y, z, -x'
   '-z, -x, y'
   '-z, x, -y'
   'y, -z, -x'
   '-y+0.5, -x+0.5, z+0.5'
   'y+0.5, x+0.5, z+0.5'
   'x+0.5, -z+0.5, -y+0.5'
   'x+0.5, z+0.5, y+0.5'
   '-z+0.5, y+0.5, -x+0.5'
   'z+0.5, y+0.5, x+0.5'
_cell_length_a        9.03520
_cell_length_b        9.03520
_cell_length_c        9.03520
_cell_angle_alpha    90.0000
_cell_angle_beta     90.0000
_cell_angle_gamma    90.0000
loop_
_atom_site_label
_atom_site_fract_x
_atom_site_fract_y
_atom_site_fract_z
_atom_site_occupancy
_atom_site_B_iso_or_equiv
na      0.736   0.736   0.736    0.19000    3.553
k      0.736   0.736   0.736    0.04600    3.553
ca      0.736   0.736   0.736    0.00400    3.553
na      0.687   0.687   0.687    0.47000    2.289
ca      0.687   0.687   0.687    0.15000    2.289
k      0.659   0.659   0.659    0.12900    1.737
si      0.250   0.500   0.000    1.00000    0.742
al      0.250   0.000   0.500    1.00000    0.757
o      0.143   0.152   0.454    1.00000    1.579
s      0.461   0.461   0.461    0.09600    2.842
cl      0.000   0.000   0.000    0.47000    4.737
c      0.000   0.000   0.000    0.15000    4.737
o      0.638   0.518   0.461    0.05880    3.947
o      0.373   0.408   0.470    0.03200    3.947
o      0.379   0.346   0.435    0.03200    3.947
o      0.600   0.600   0.600    0.12800    3.947
_cell_measurement_wavelength    1.541874
_cell_measurement_radiation   'x-rays'
_exptl_crystal_density_diffrn    2.398000
loop_
_pd_peak_d_spacing
_pd_peak_intensity
     6.388851        177.33
     4.517600         29.59
     4.040664          9.97
     3.688605       1000.00
     3.194426          1.28
     2.857181        129.56
     2.608238        223.69
     2.505914          0.33
     2.414759        104.36
     2.258800         34.88
     2.191358          0.22
     2.129617        288.67
     2.020332          3.52
     1.971642          0.10
     1.926311         22.83
     1.844303         22.58
     1.807040          0.05
     1.771949         55.41
     1.677795          1.22
     1.649594         22.78
     1.597213         78.49
     1.549524         53.12
     1.527228          0.85
     1.505867         64.95
     1.485378          0.15
     1.465703         62.06
     1.428591          4.25
     1.411061          0.38
     1.394162         16.54
     1.362108         53.90
     1.346888          0.23
     1.332168         27.63
     1.304119         32.43
     1.290743          0.02
     1.277770         12.98
     1.252957          1.95
     1.241080          0.36
     1.229535         71.43
     1.207379          8.43
     1.186380         16.24
     1.176283          0.13
     1.156839          0.30
     1.147472         16.87
     1.129400          5.12
     1.120679          0.17
     1.112156         18.48
     1.095679         10.37
     1.087710          0.17
     1.079913          3.03
     1.064809          6.75
     1.057490          0.01
     1.050321          5.85
     1.043295          0.17
     1.036409         24.69
     1.029657          0.68
     1.023035         11.08
     1.010166         28.03
##############################################################################
###                            Comments                                    ###
##############################################################################
###   Diffraction pattern calculated by Match!. 
###   I/Ic calculated by Match!. 
###   Space group has been derived from given symmetry operations. 
##############################################################################


