##############################################################################
###               Crystal structure data exported by Match!                ###
##############################################################################
###                           Data published by:                           ###
###                                                                        ###
###               COD (Crystallography Open Database)
##############################################################################
data_9004061
_citation_journal_full    'The Canadian Mineralogist'
_citation_journal_volume  '7'
_citation_page_first  '561'
_citation_page_last   '577'
_citation_year  '1963'
_citation_title  'The structures of the minerals of the descloizite and adelite groups:IV - descloizite and conichalcite (part 2) The structure of conichalcite'
loop_
_publ_author_name
  'Qurashi M. M.'
  'Barnes W. H.'
_chemical_formula_sum  'As Ca Cu H O5'
_chemical_name_mineral  'Conichalcite'
_symmetry_space_group_name_H-M 'P 21 21 21'
_space_group_IT_number 19
_space_group_crystal_system 'orthorhombic'
loop_
_symmetry_equiv_pos_as_xyz
   'x, y, z'
   '-x+0.5, -y, z+0.5'
   'x+0.5, -y+0.5, -z'
   '-x, y+0.5, -z+0.5'
_cell_length_a        7.40000
_cell_length_b        5.84000
_cell_length_c        9.21000
_cell_angle_alpha    90.0000
_cell_angle_beta     90.0000
_cell_angle_gamma    90.0000
loop_
_atom_site_label
_atom_site_fract_x
_atom_site_fract_y
_atom_site_fract_z
_atom_site_occupancy
_atom_site_B_iso_or_equiv
ca      0.116   0.269   0.425    1.00000    0.199
cu      0.000   0.000   0.750    1.00000    0.949
as      0.368   -0.233   0.580    1.00000    0.739
o      0.187   -0.256   0.700    1.00000    1.000
o      0.538   -0.176   0.694    1.00000    1.000
o      0.378   0.509   0.489    1.00000    1.000
o      0.368   -0.016   0.474    1.00000    1.000
o      0.151   0.250   0.680    1.00000    1.000
_cell_measurement_wavelength    1.541874
_cell_measurement_radiation   'x-rays'
_exptl_crystal_density_diffrn    4.331000
loop_
_pd_peak_d_spacing
_pd_peak_intensity
     5.768639        280.72
     4.932048        246.19
     4.605000          3.45
     4.584350          0.10
     4.104041        428.21
     3.909774        157.32
     3.700000        203.61
     3.616049         15.24
     3.433303        207.27
     3.248901        138.68
     3.125508        907.40
     2.959722          6.34
     2.920000         93.19
     2.884320        242.78
     2.835657       1000.00
     2.783455          9.53
     2.717405          4.19
     2.716185         13.85
     2.605250        853.93
     2.586103        402.89
     2.550853        464.71
     2.466024        166.21
     2.382691        131.50
     2.362621         97.47
     2.339537        125.61
     2.302500         39.69
     2.292175        156.03
     2.272292          0.86
     2.224322         12.71
     2.206139         21.31
     2.198534          1.49
     2.190179          2.92
     2.174376          0.00
     2.142028          0.02
     2.115794          0.00
     2.057562          0.39
     2.052021        209.40
     2.037718         27.34
     2.034277         17.90
     1.954887         73.17
     1.922880         11.00
     1.904588          6.54
     1.884324          0.01
     1.882616          0.11
     1.853784         66.68
     1.850000         43.42
     1.846083         86.96
     1.844476         64.67
     1.836701          1.83
     1.826423        193.85
     1.813771          3.75
     1.808024        213.84
     1.793040         21.56
     1.787456          5.72
     1.763625          0.90
     1.756690          2.79
     1.756360          3.06
     1.743970          5.54
     1.742615         13.30
     1.732153         13.86
     1.722775        118.06
     1.716652        246.65
     1.709190         69.27
     1.693404          1.83
     1.683160          1.35
     1.648959         11.96
     1.646972          0.65
     1.644016          0.43
     1.624451         81.88
     1.617327         26.02
     1.613557         51.91
     1.605945        451.26
     1.604887         94.55
     1.586913          2.77
     1.584537          1.16
     1.562754        182.54
     1.557923          0.00
     1.540732          2.47
     1.535000         66.12
     1.529247          3.35
     1.528117          0.05
     1.524504        220.54
     1.507507         14.39
     1.503005          0.00
     1.502385          2.91
     1.486569          4.94
     1.484575          0.02
     1.479861         10.40
     1.475894         78.60
     1.461253         63.00
     1.460000        130.46
     1.458244          6.10
     1.457451          2.57
     1.455572          0.68
     1.450348         13.10
     1.442160         43.71
     1.441994          1.50
     1.435833         57.37
     1.434647          0.76
     1.432387          1.76
     1.430907         31.35
     1.417828         19.57
     1.417552         18.63
     1.415372         28.21
     1.409018         14.30
     1.400101          1.56
     1.392697          2.28
     1.391727          0.03
     1.379398         26.25
     1.377805        105.34
     1.369716          0.73
     1.368014         57.81
     1.367748         10.93
     1.358703         10.07
     1.358093          8.96
     1.343564         16.57
     1.341020          0.00
     1.337963          4.13
     1.336364          4.07
     1.333168          0.07
     1.327026          4.66
     1.320116          0.05
     1.318494          0.41
     1.317200          3.01
     1.316616         25.57
     1.306760          5.41
     1.305310          2.26
     1.303258          1.89
     1.302625         32.48
     1.299732         44.75
     1.298051        136.29
     1.295398          2.67
     1.293052          0.51
     1.287537          6.09
     1.283543          6.92
     1.275427         26.22
     1.273878         13.24
     1.273224          7.78
     1.271970          1.25
     1.269002         21.92
     1.264660          7.89
     1.258225          0.70
     1.256412          0.12
     1.244988          0.14
     1.244881         43.51
     1.241993          7.64
     1.239669          0.11
     1.233333         11.74
     1.233012          4.83
     1.228894          0.13
     1.222421          8.90
     1.217627          0.06
     1.216244          0.10
     1.212747        103.66
     1.212649          1.14
     1.212107          1.17
     1.206717         51.82
     1.205350          1.09
     1.199564          0.00
     1.196491          4.56
     1.191664          4.29
     1.191346         13.06
     1.190102          0.58
     1.189671          0.31
     1.184108         32.84
     1.181311          2.55
     1.178165          1.11
     1.176090         17.39
     1.169768         31.11
     1.168641          8.61
     1.167304         10.63
     1.162801          1.79
     1.160893         34.91
     1.158805          9.58
     1.158719          2.40
     1.157860          0.11
     1.153728         25.53
     1.153717          0.21
     1.151250          1.70
     1.146087         12.58
     1.146069         51.79
     1.145237          3.07
     1.144770         13.35
     1.144434          0.17
     1.144178          0.07
     1.141401          0.59
     1.141093          5.82
     1.138615          5.42
     1.137566          3.69
     1.137315          0.67
     1.136146          3.35
     1.132151          6.44
     1.131852         14.33
     1.130741          5.79
     1.129512          0.50
     1.127599          0.63
     1.123073          0.11
     1.119129          1.09
     1.116580          1.90
     1.113821         27.06
     1.112161         71.32
     1.105764          0.70
     1.103069         12.44
     1.102897          0.38
     1.099947         26.61
     1.099267          7.48
     1.095090        129.35
     1.093105          3.24
     1.091662          0.38
     1.090083          3.25
     1.087188          6.47
     1.084144          6.98
     1.082967          0.06
     1.082604         13.93
     1.080296         24.50
     1.079974         16.15
     1.078765          3.29
     1.078444          5.40
     1.073708          2.44
     1.073008          0.24
     1.072205          0.62
     1.071014         57.16
     1.068825          5.80
     1.065520          2.53
     1.065431          0.15
     1.059970          1.45
     1.057897         35.00
     1.055636          0.00
     1.054578          2.24
     1.050247          1.32
     1.048833          0.16
     1.048769          8.30
     1.048132          0.05
     1.047249          0.07
     1.047040          0.87
     1.045646          0.88
     1.043221          0.70
     1.041836         23.76
     1.041642          4.27
     1.040237          0.00
     1.039375          0.05
     1.037950         41.28
     1.035234          3.08
     1.033665          5.04
     1.032819         38.04
     1.031474          1.33
     1.030342          0.07
     1.028946          3.40
     1.028781         11.39
     1.026964          1.66
     1.026010         23.90
     1.024824          0.02
     1.018859         13.85
     1.017138         13.39
     1.016155          6.61
     1.014671          9.20
     1.013871          5.20
     1.013687         36.98
     1.009906          0.14
     1.009400          1.92
     1.007975          0.39
     1.006496          1.10
##############################################################################
###                            Comments                                    ###
##############################################################################
###   Diffraction pattern calculated by Match!. 
###   I/Ic calculated by Match!. 
###   Space group has been derived from given symmetry operations. 
##############################################################################


