##############################################################################
###               Crystal structure data exported by Match!                ###
##############################################################################
###                           Data published by:                           ###
###                                                                        ###
###               COD (Crystallography Open Database)
##############################################################################
data_9008277
_citation_journal_full    'Zeitschrift fur Kristallographie'
_citation_journal_volume  '149'
_citation_page_first  '249'
_citation_page_last   '257'
_citation_year  '1979'
_citation_title  'Posnjakite: [Cu4(OH)6(H2O)O] octahedral sheets in its structure Locality: Fowey Consols, England'
loop_
_publ_author_name
  'Mellini M.'
  'Merlino S.'
_chemical_formula_sum  'Cu4 H8 O11 S'
_chemical_name_mineral  'Posnjakite'
_symmetry_space_group_name_H-M 'P 1 a 1'
_space_group_IT_number 7
_space_group_crystal_system 'monoclinic'
loop_
_symmetry_equiv_pos_as_xyz
   'x, y, z'
   'x+0.5, -y, z'
_cell_length_a       10.57800
_cell_length_b        6.34500
_cell_length_c        7.86300
_cell_angle_alpha    90.0000
_cell_angle_beta    117.9800
_cell_angle_gamma    90.0000
loop_
_atom_site_label
_atom_site_fract_x
_atom_site_fract_y
_atom_site_fract_z
_atom_site_occupancy
_atom_site_B_iso_or_equiv
cu      0.562   0.519   0.977    1.00000    1.000
cu      0.073   0.986   0.018    1.00000    1.000
cu      0.820   0.749   0.003    1.00000    1.000
cu      0.319   0.753   -0.001    1.00000    1.000
s      0.633   0.718   0.423    1.00000    1.000
o      0.361   0.544   0.847    1.00000    0.900
o      0.862   0.998   0.885    1.00000    0.700
o      0.280   0.953   0.149    1.00000    0.799
o      0.034   0.721   0.121    1.00000    1.098
o      0.774   0.496   0.119    1.00000    1.298
o      0.609   0.776   0.879    1.00000    0.700
o      0.561   0.753   0.209    1.00000    0.900
o      0.045   0.700   0.707    1.00000    1.699
o      0.030   0.251   0.494    1.00000    3.899
o      0.256   0.143   0.515    1.00000    2.600
o      0.184   0.509   0.458    1.00000    4.400
h      0.340   0.510   0.840    1.00000    1.999
h      0.350   0.020   0.790    1.00000    1.999
h      0.320   0.890   0.310    1.00000    1.999
h      0.080   0.710   0.260    1.00000    1.999
h      0.580   0.770   0.810    1.00000    1.999
h      0.010   0.600   0.610    1.00000    1.999
h      0.010   0.720   0.620    1.00000    1.999
_cell_measurement_wavelength    1.541874
_cell_measurement_radiation   'x-rays'
_exptl_crystal_density_diffrn    3.350000
loop_
_pd_peak_d_spacing
_pd_peak_intensity
     6.943905       1000.00
     6.345000          4.51
     5.248743         52.83
     5.153957         25.06
     4.846589         39.21
     4.684040          6.21
     4.670776         14.42
     4.000476          0.58
     3.761505          4.11
     3.754711          7.07
     3.739704          8.39
     3.471952        244.70
     3.327339         43.05
     3.235794         18.07
     3.231327          7.21
     3.172500          3.30
     3.081423          1.36
     3.045780          5.37
     3.003992          0.72
     2.922405          6.60
     2.885599          8.60
     2.882589          5.19
     2.838229          4.21
     2.795372          8.36
     2.701691        199.56
     2.624372         39.95
     2.619830          5.23
     2.616934          1.60
     2.615079         99.90
     2.597742          9.63
     2.576978         15.14
     2.463009          5.11
     2.423295        232.24
     2.421533          4.97
     2.417780          1.11
     2.387573          1.39
     2.359940          2.17
     2.358109          1.66
     2.342020          0.27
     2.335388        111.77
     2.328493          0.87
     2.314635         20.90
     2.314615          0.51
     2.281528          0.72
     2.265342         76.77
     2.256363         38.75
     2.243622          3.94
     2.222270          0.79
     2.191647          0.44
     2.174467          0.21
     2.174451          1.44
     2.125940          0.54
     2.119026          1.64
     2.115000          0.01
     2.062791          3.26
     2.035796          0.72
     2.023232          0.34
     2.020080        137.01
     2.017899          0.57
     2.001495          0.20
     2.000238          0.01
     1.983905          1.87
     1.965113          1.47
     1.962157          0.02
     1.956657          0.33
     1.953879          1.73
     1.953843         58.55
     1.937650          3.31
     1.936637          0.20
     1.926679          1.53
     1.923730          2.99
     1.886471          2.38
     1.880753          1.14
     1.877355         21.16
     1.869863          0.98
     1.869852         41.32
     1.869188          1.31
     1.867346          5.79
     1.867315          3.86
     1.860042          0.40
     1.842758          2.57
     1.838736          0.93
     1.832710          1.61
     1.813601          0.47
     1.806251          1.11
     1.800209          1.79
     1.795288          0.98
     1.792229          1.22
     1.770369          1.01
     1.769750          0.30
     1.762514          0.36
     1.759944          1.65
     1.756430          0.52
     1.749581          0.76
     1.735976         14.85
     1.729665          2.48
     1.717986          0.25
     1.712808          0.40
     1.704683          2.45
     1.698861          1.02
     1.698213          0.16
     1.697845          0.84
     1.681104          1.87
     1.677151          1.09
     1.674437          2.49
     1.664971          1.03
     1.663669         52.93
     1.663647          1.25
     1.658275          1.20
     1.645658          2.25
     1.644478          0.18
     1.641056          0.17
     1.639034          1.82
     1.634877          0.14
     1.625923          0.47
     1.617897         28.36
     1.615663          0.12
     1.615530          0.29
     1.612103          0.00
     1.609887          0.45
     1.599596          0.22
     1.586711          0.23
     1.586250         31.66
     1.572532          0.01
     1.567733          0.69
     1.567670          0.67
     1.563864          2.38
     1.561347          1.99
     1.561341          1.17
     1.556956         20.84
     1.556925          0.07
     1.552003          4.41
     1.546414         32.01
     1.545538         38.63
     1.543651          0.01
     1.543087          1.07
     1.540712         63.82
     1.539309          0.29
     1.532150          0.52
     1.527901          0.01
     1.525921          0.76
     1.522890          1.33
     1.516070          0.75
     1.512097          3.15
     1.512069          0.77
     1.510701         34.84
     1.501996          0.22
     1.500598          2.11
     1.499901          2.53
     1.499374          0.95
     1.497648         31.01
     1.493469          0.66
     1.476911          0.16
     1.469775          1.29
     1.466375          0.86
     1.463656          0.70
     1.461499          0.31
     1.461203          0.09
     1.459848          0.44
     1.446537          0.89
     1.445020          0.50
     1.443813          0.07
     1.442800         21.06
     1.441294          0.37
     1.439703          1.05
     1.436021          0.37
     1.435185          1.08
     1.435171          0.19
     1.424313          1.35
     1.423657          0.67
     1.419280          0.29
     1.419115         18.07
     1.418867          0.34
     1.418395          0.80
     1.413500          0.43
     1.413421          0.94
     1.408604          0.46
     1.406039          0.17
     1.404024          0.22
     1.401686          0.08
     1.400229          0.80
     1.397708          0.14
     1.397686         18.38
     1.395982          0.47
     1.389120          2.73
     1.388781          5.85
     1.388058         15.18
     1.387641          0.06
     1.386657          0.14
     1.385720          0.05
     1.384230          0.90
     1.362171          0.08
     1.359182          0.59
     1.357455          0.26
     1.357269          2.66
     1.356908          0.00
     1.356664          0.76
     1.356328          6.30
     1.356246         16.53
     1.356132          0.90
     1.354684          0.30
     1.353996          0.25
     1.350845          7.24
     1.345781          0.33
     1.345277          0.54
     1.341853          0.22
     1.339937          0.36
     1.339870          0.27
     1.333492          0.27
     1.330738          1.81
     1.326363          1.35
     1.324489          0.28
     1.321194          6.84
     1.312670          0.22
     1.312186         18.91
     1.309915          9.15
     1.308471          8.04
     1.308467          0.00
     1.307540          2.82
     1.305935          0.38
     1.304475          0.28
     1.298871         17.15
     1.297668          9.31
     1.294871          8.33
     1.293451          0.11
     1.292568          0.01
     1.288489         11.25
     1.287668          0.23
     1.285030          1.37
     1.282862          1.87
     1.280630          0.03
     1.276760          0.02
     1.275975          0.34
     1.272222          0.56
     1.271166          0.78
     1.270589          7.68
     1.269236          0.17
     1.269000          0.13
     1.267740          0.56
     1.265951          0.77
     1.265214          0.31
     1.262785          0.24
     1.262716          0.41
     1.261699          0.51
     1.257565          0.47
     1.257451          0.41
     1.256509          1.00
     1.253851          0.62
     1.253835          0.03
     1.251570          0.21
     1.251548          4.87
     1.251260          0.00
     1.251041          0.62
     1.248326          0.42
     1.247134          0.10
     1.246871          0.24
     1.246568          0.37
     1.246399          0.66
     1.236943          0.09
     1.232199          0.03
     1.232032          1.34
     1.231505          0.11
     1.231496         14.88
     1.230107          0.01
     1.227910          0.24
     1.227889          0.03
     1.225814          0.25
     1.224607          0.18
     1.224547          0.08
     1.223849          0.04
     1.223575          0.17
     1.222534          0.24
     1.221411          0.38
     1.219656          0.34
     1.218916          0.06
     1.218728          7.55
     1.211647          7.16
     1.211640          0.64
     1.210767          0.44
     1.210143          0.27
     1.209205          1.88
     1.208890          0.19
     1.206955          0.31
     1.204972          0.07
     1.202194          0.50
     1.200454          0.33
     1.198557          0.10
     1.196850          0.88
     1.196519          0.09
     1.193987          0.02
     1.193845          0.44
     1.193787          0.10
     1.191883          0.02
     1.191368          0.21
     1.188537          0.29
     1.188166          0.32
     1.187641          0.07
     1.185231          0.84
     1.182659          0.75
     1.181397          0.44
     1.181213          0.51
     1.181023          0.64
     1.179970          6.57
     1.179055          0.33
     1.178284          0.01
     1.178014          0.02
     1.175159          0.40
     1.174105          0.12
     1.173284          0.41
     1.171010          5.22
     1.167694          2.89
     1.167368          1.44
     1.165441          0.16
     1.164328          0.27
     1.164246          4.59
     1.164229          0.70
     1.160883          0.72
     1.159641          0.01
     1.159416          0.14
     1.159093          0.31
     1.157317          3.12
     1.157308          3.69
     1.155365          0.17
     1.148409          0.25
     1.143980          0.37
     1.142073          0.10
     1.141727          0.53
     1.141678          0.33
     1.140764          4.47
     1.139136          0.00
     1.138533          1.57
     1.138524          0.39
     1.138451          0.29
     1.137671          0.17
     1.135462          0.45
     1.135415          0.40
     1.134477          0.43
     1.132671         10.29
     1.131858          0.00
     1.130204          0.07
     1.128620          0.19
     1.128182          5.65
     1.126337          0.02
     1.125461          0.01
     1.121869          4.23
     1.121811          0.16
     1.120532          0.02
     1.119958          0.10
     1.119031          0.20
     1.118082          0.06
     1.116597          0.12
     1.115021          0.09
     1.113627          1.17
     1.112739          0.09
     1.112737          0.14
     1.112259          8.69
     1.112166          0.05
     1.111146          7.96
     1.111135          0.08
     1.110760          0.66
     1.109113          0.99
     1.106280          0.02
     1.106072          0.14
     1.106068          1.09
     1.104733          1.66
     1.103920          0.01
     1.103500          0.33
     1.103470          0.45
     1.102511          0.34
     1.101863          0.03
     1.100417          0.45
     1.100372          0.36
     1.096257          0.15
     1.095823          0.00
     1.091974          0.09
     1.091494          0.41
     1.090816          0.24
     1.090599          0.15
     1.089912          0.36
     1.089523          0.57
     1.088758          0.13
     1.087364          0.20
     1.087234          0.09
     1.087225          0.75
     1.087180          0.57
     1.084558          0.11
     1.081451          0.05
     1.080923          0.05
     1.078614          0.14
     1.078598          0.24
     1.077109          0.44
     1.077095          0.13
     1.076772          0.03
     1.076180          0.09
     1.072295          0.11
     1.072196          4.80
     1.070991          0.13
     1.067743          0.20
     1.066963          0.03
     1.064580          0.03
     1.064239          0.59
     1.064233          0.59
     1.063359          0.62
     1.063344          0.34
     1.062970          0.13
     1.062548          0.64
     1.059513          0.22
     1.058433          0.47
     1.057762          0.43
     1.057705          0.10
     1.057685          0.09
     1.057500          0.06
     1.057339          0.18
     1.057208          0.32
     1.057133          0.20
     1.056971          0.01
     1.056576          0.04
     1.055961          0.12
     1.054896          0.17
     1.054590          0.04
     1.051345          0.38
     1.050788          0.67
     1.050362          0.32
     1.049982          0.11
     1.049749          0.01
     1.047409          0.20
     1.047168          0.46
     1.046176          0.19
     1.045452          0.03
     1.045446          0.06
     1.044899          4.46
     1.043993          0.01
     1.043640          0.10
     1.043406          0.13
     1.042250          4.73
     1.040612          0.00
     1.040319          0.03
     1.040241          0.34
     1.035919          5.03
     1.035583          0.23
     1.035547          1.20
     1.032546          0.02
     1.031663          2.02
     1.031647          0.09
     1.031395          2.99
     1.031278          0.13
     1.030942          0.03
     1.030865          4.21
     1.030791          0.06
     1.029840          0.09
     1.029113          0.08
     1.027960          0.03
     1.027141          0.08
     1.025988          0.01
     1.025297          0.01
     1.024466          0.63
     1.024335          0.08
     1.022244          0.05
     1.021206          2.38
     1.021192          4.39
     1.021186          0.29
     1.020783          1.40
     1.020731          0.10
     1.019117          0.09
     1.018290          0.38
     1.018275          0.00
     1.017898          5.24
     1.017452          0.03
     1.017428          0.19
     1.016676          0.10
     1.016246          0.01
     1.015754          0.19
     1.015260          0.75
     1.015253          0.32
     1.015184          4.21
     1.014756          0.35
     1.013081          0.23
     1.012902          0.48
     1.011616          0.04
     1.010040          5.85
     1.008950          3.14
     1.006668          0.28
##############################################################################
###                            Comments                                    ###
##############################################################################
###   Diffraction pattern calculated by Match!. 
###   I/Ic calculated by Match!. 
##############################################################################


