##############################################################################
###               Crystal structure data exported by Match!                ###
##############################################################################
###                           Data published by:                           ###
###                                                                        ###
###               COD (Crystallography Open Database)
##############################################################################
data_9000651
_citation_journal_full    'American Mineralogist'
_citation_journal_volume  '63'
_citation_page_first  '506'
_citation_page_last   '510'
_citation_year  '1978'
_citation_title  'Crystal structure and sulphate force constants of barite, celestite, andanglesite'
loop_
_publ_author_name
  'Miyake M.'
  'Minato I.'
  'Morikawa H.'
  'Iwai S. I.'
_chemical_formula_sum  'O4 S Sr'
_chemical_name_mineral  'Celestine'
_symmetry_space_group_name_H-M 'P b n m'
_space_group_IT_number 62
_space_group_crystal_system 'orthorhombic'
loop_
_symmetry_equiv_pos_as_xyz
   'x, y, z'
   '-x, -y, z+0.5'
   'x+0.5, -y+0.5, -z'
   '-x+0.5, y+0.5, -z+0.5'
   '-x, -y, -z'
   'x, y, -z+0.5'
   '-x+0.5, y+0.5, z'
   'x+0.5, -y+0.5, z+0.5'
_cell_length_a        6.87000
_cell_length_b        8.37100
_cell_length_c        5.35500
_cell_angle_alpha    90.0000
_cell_angle_beta     90.0000
_cell_angle_gamma    90.0000
loop_
_atom_site_label
_atom_site_fract_x
_atom_site_fract_y
_atom_site_fract_z
_atom_site_occupancy
_atom_site_B_iso_or_equiv
sr      0.158   0.184   0.250    1.00000    0.830
s      0.185   0.438   0.750    1.00000    0.570
o      0.093   0.594   0.750    1.00000    1.760
o      0.042   0.307   0.750    1.00000    1.409
o      0.311   0.422   0.975    1.00000    1.037
_cell_measurement_wavelength    1.541874
_cell_measurement_radiation   'x-rays'
_exptl_crystal_density_diffrn    3.962000
loop_
_pd_peak_d_spacing
_pd_peak_intensity
     5.310551          0.29
     4.223503         96.45
     4.185500         45.31
     3.770744        334.78
     3.574379         15.41
     3.435000        261.64
     3.297707        938.86
     3.177855        535.84
     2.972940       1000.00
     2.732869        633.28
     2.677500        495.83
     2.655276         12.32
     2.585230         64.31
     2.390813         33.76
     2.378887        163.08
     2.328123          2.69
     2.255480        136.37
     2.208840         42.04
     2.165803         63.08
     2.142945        253.98
     2.111751         10.39
     2.105553          0.09
     2.092750         12.06
     2.047602        483.29
     2.041950        381.33
     2.008967         32.18
     2.007806        318.79
     2.001927        381.77
     1.949190        141.18
     1.885372          6.86
     1.880957          0.16
     1.875175          0.01
     1.859798         57.36
     1.787189          1.32
     1.770184        174.95
     1.727637         34.22
     1.717500         30.29
     1.703870          4.42
     1.695269          0.46
     1.691978         28.61
     1.683881          0.06
     1.682453         41.41
     1.680734         82.21
     1.648853          0.32
     1.641919         72.67
     1.626596         17.53
     1.606931          5.12
     1.605096         40.10
     1.603321        129.53
     1.596944         99.73
     1.588928         11.54
     1.556380         18.73
     1.556294        115.74
     1.544834          6.25
     1.523285         21.90
     1.504961         10.10
     1.486470          0.64
     1.484304          0.55
     1.481384         18.51
     1.476642        192.67
     1.468882          4.59
     1.462636          0.13
     1.448832         59.76
     1.445644         33.86
     1.424557         95.37
     1.410952         23.29
     1.407834          0.00
     1.395167          1.54
     1.390170         37.93
     1.388337         74.51
     1.377459         75.10
     1.367257          1.40
     1.366435         12.78
     1.358086         47.61
     1.355857          0.74
     1.351527         40.88
     1.350098         52.89
     1.338750         80.65
     1.338086          0.19
     1.334372          0.05
     1.332303          0.64
     1.330889         41.78
     1.327638          0.72
     1.324759         88.59
     1.314381          0.12
     1.311925          1.33
     1.310434         55.18
     1.305458         14.91
     1.298137          0.09
     1.292615          0.12
     1.288625         34.73
     1.283602         18.80
     1.275112          4.85
     1.268314         57.51
     1.262959          0.74
     1.256915         43.66
     1.256526          8.15
     1.253700          5.19
     1.247363         15.95
     1.237273         20.13
     1.233741         53.56
     1.232660          4.25
     1.224322         28.01
     1.217682          4.44
     1.209608          6.72
     1.206530        104.17
     1.202286          9.51
     1.201246         12.41
     1.198854          0.62
     1.195407          0.13
     1.191460          0.28
     1.189443          0.99
     1.188808         12.54
     1.186833         10.14
     1.178141          0.03
     1.173415         30.62
     1.169895         16.38
     1.168115          0.30
     1.164062          5.17
     1.163020          0.31
     1.150623          5.07
     1.150589         20.23
     1.148570         48.95
     1.145000         23.01
     1.144882          3.37
     1.138759          4.91
     1.134437          0.63
     1.131340         10.55
     1.129374         36.45
     1.127740          1.26
     1.123029          0.40
     1.119700          7.86
     1.114051          4.95
     1.112846         81.38
     1.109807          0.32
     1.105065         13.10
     1.104420          3.71
     1.099236         23.56
     1.094180          1.26
     1.088793         21.99
     1.088549          0.21
     1.085429         33.02
     1.082902          4.41
     1.081655         47.15
     1.079699          0.02
     1.078364          1.69
     1.077508         35.62
     1.071472          0.21
     1.067774         56.39
     1.065285         18.14
     1.062110          0.07
     1.061416          7.19
     1.060025          0.46
     1.059285          0.38
     1.058218          1.49
     1.055876         10.63
     1.055550         60.51
     1.053724         29.16
     1.052777         21.61
     1.049863          7.65
     1.047575         20.21
     1.046935          4.58
     1.046375         27.93
     1.044548          0.00
     1.041816          7.68
     1.040592         48.60
     1.039848         30.55
     1.039149          3.81
     1.037570         26.10
     1.034445          1.23
     1.033671          8.72
     1.026953          1.15
     1.025936         32.67
     1.023801          5.81
     1.020975         12.16
     1.015668          7.48
     1.014912         15.04
     1.014310         12.82
     1.011713          1.26
##############################################################################
###                            Comments                                    ###
##############################################################################
###   Diffraction pattern calculated by Match!. 
###   I/Ic calculated by Match!. 
###   Space group has been derived from given symmetry operations. 
##############################################################################


