##############################################################################
###               Crystal structure data exported by Match!                ###
##############################################################################
###                           Data published by:                           ###
###                                                                        ###
###               COD (Crystallography Open Database)
##############################################################################
data_1010921
_citation_journal_full    'American Journal of Science, Serie 5(1,1921-1938)'
_citation_journal_volume  '23'
_citation_page_first  '350'
_citation_page_last   '356'
_citation_year  '1932'
_citation_title  'The Cristobalite Structures. I. High-Cristobalite'
loop_
_publ_author_name
  'Barth T F W'
_chemical_formula_sum  'O2 Si'
_chemical_name_mineral  'Cristobalite high'
_chemical_name_common  'Silicon oxide'
_symmetry_space_group_name_H-M 'P 21 3'
_space_group_IT_number 198
_space_group_crystal_system 'cubic'
loop_
_symmetry_equiv_pos_as_xyz
   'x, y, z'
   'z, x, y'
   'y, z, x'
   '-y+0.5, -z, x+0.5'
   'z+0.5, -x+0.5, -y'
   '-y, z+0.5, -x+0.5'
   '-z+0.5, -x, y+0.5'
   '-z, x+0.5, -y+0.5'
   'y+0.5, -z+0.5, -x'
   '-x+0.5, -y, z+0.5'
   'x+0.5, -y+0.5, -z'
   '-x, y+0.5, -z+0.5'
_cell_length_a        7.16000
_cell_length_b        7.16000
_cell_length_c        7.16000
_cell_angle_alpha    90.0000
_cell_angle_beta     90.0000
_cell_angle_gamma    90.0000
_cell_formula_units_Z 8
loop_
_atom_site_label
_atom_site_fract_x
_atom_site_fract_y
_atom_site_fract_z
_atom_site_occupancy
_atom_site_B_iso_or_equiv
si      0.255   0.255   0.255    1.00000    1.000
si      -0.008   -0.008   -0.008    1.00000    1.000
o      0.125   0.125   0.125    1.00000    1.000
o      0.660   0.660   0.062    1.00000    1.000
_cell_measurement_wavelength    1.541874
_cell_measurement_radiation   'x-rays'
_exptl_crystal_density_diffrn    2.174000
loop_
_pd_peak_d_spacing
_pd_peak_intensity
     5.062884          4.55
     4.133828       1000.00
     3.580000          0.67
     3.202049         19.55
     2.923058         34.42
     2.531442        184.23
     2.386667         20.59
     2.264191         20.91
     2.158821         17.46
     2.066914         47.59
     1.985827         26.29
     1.913590         25.64
     1.790000          6.14
     1.736555          9.04
     1.687628         11.73
     1.642617         98.31
     1.601025          0.29
     1.562440         13.72
     1.526517          1.81
     1.461529         82.02
     1.432000          1.93
     1.404191          7.47
     1.377943         33.47
     1.329579         14.42
     1.307231          3.01
     1.265721         33.03
     1.246396          2.19
     1.227930          6.26
     1.210261         55.50
     1.193333          1.88
     1.177097          4.03
     1.161505         10.54
     1.132095         31.90
     1.118204          2.60
     1.104812          0.68
     1.091890          5.49
     1.079411          1.03
     1.067350          1.39
     1.055684          1.05
     1.033457          4.89
     1.022857          1.36
     1.012577          5.85
##############################################################################
###                            Comments                                    ###
##############################################################################
###   Diffraction pattern calculated by Match!. 
###   I/Ic calculated by Match!. 
###   Space group has been derived from given symmetry operations. 
##############################################################################


