##############################################################################
###               Crystal structure data exported by Match!                ###
##############################################################################
###                           Data published by:                           ###
###                                                                        ###
###               COD (Crystallography Open Database)
##############################################################################
data_9006297
_citation_journal_full    'Physics and Chemistry of Minerals'
_citation_journal_volume  '21'
_citation_page_first  '269'
_citation_page_last   '284'
_citation_year  '1994'
_citation_title  'Framework silica structures generated using simulated annealingwith a potential energy function based on an H6Si2O7 moleculeSample: 14'
loop_
_publ_author_name
  'Boisen M. B.'
  'Gibbs G. V.'
  'Bukowinski M. S. T.'
_chemical_formula_sum  'O2 Si'
_chemical_name_common  'Silica'
_symmetry_space_group_name_H-M 'P 1'
_space_group_IT_number 1
_space_group_crystal_system 'triclinic'
loop_
_symmetry_equiv_pos_as_xyz
   'x, y, z'
_cell_length_a        5.86570
_cell_length_b        5.15190
_cell_length_c        5.33770
_cell_angle_alpha    92.6936
_cell_angle_beta     90.7338
_cell_angle_gamma    90.0688
loop_
_atom_site_label
_atom_site_fract_x
_atom_site_fract_y
_atom_site_fract_z
_atom_site_occupancy
_atom_site_B_iso_or_equiv
si      0.100   0.214   0.236    1.00000    1.000
si      0.843   0.851   0.494    1.00000    1.000
si      0.100   0.478   0.740    1.00000    1.000
si      0.540   0.351   0.493    1.00000    1.000
o      0.002   0.339   0.983    1.00000    1.000
o      0.686   0.600   0.407    1.00000    1.000
o      0.992   0.353   0.484    1.00000    1.000
o      0.376   0.241   0.261    1.00000    1.000
o      0.376   0.452   0.723    1.00000    1.000
o      0.009   0.774   0.728    1.00000    1.000
o      0.009   0.920   0.261    1.00000    1.000
o      0.697   0.110   0.579    1.00000    1.000
_cell_measurement_wavelength    1.541874
_cell_measurement_radiation   'x-rays'
_exptl_crystal_density_diffrn    2.477000
loop_
_pd_peak_d_spacing
_pd_peak_intensity
     5.865209        632.07
     5.331360       1000.00
     5.146199        515.82
     3.970636        201.61
     3.920058        184.66
     3.871750        201.45
     3.864827        176.48
     3.792816        172.17
     3.618608        146.01
     3.196344        156.56
     3.173597        148.30
     3.093516        242.38
     3.065964        245.67
     2.932605        144.51
     2.665680          4.23
     2.583611          0.35
     2.573100         94.36
     2.555662          0.18
     2.549916         68.37
     2.545960         65.97
     2.438655        146.86
     2.415110        149.94
     2.413781          6.75
     2.361184         96.41
     2.357886         21.14
     2.354757         18.62
     2.328837         76.32
     2.322801          4.11
     2.311254         74.07
     2.289587          4.25
     2.275816          8.43
     2.267275          8.21
     2.240690          1.83
     2.223698          1.58
     2.193431         24.86
     2.187289         16.91
     2.168563         18.93
     2.150766         25.25
     2.126788         32.72
     2.116636         23.57
     1.985318          5.50
     1.960029          9.27
     1.955070         38.47
     1.935875         49.21
     1.932414         51.70
     1.896408         14.04
     1.873646         54.12
     1.853867         48.48
     1.843231          2.42
     1.842793          5.02
     1.835521          4.60
     1.831594         30.69
     1.828720          5.61
     1.827949          3.34
     1.826530          7.34
     1.810259         22.60
     1.809304         12.73
     1.808582          0.68
     1.804144         23.20
     1.800309          1.88
     1.791789         16.30
     1.777120          6.16
     1.743353          4.81
     1.733806          3.75
     1.732268          3.73
     1.727319         16.85
     1.724057          5.84
     1.715400          4.87
     1.712918         13.70
     1.706876          5.68
     1.704692         34.55
     1.694719          4.89
     1.655934         32.07
     1.655809         31.55
     1.647229          7.51
     1.645628          9.09
     1.642135          8.41
     1.631821          9.21
     1.611019         31.89
     1.598905          1.98
     1.598172          4.30
     1.594466          5.74
     1.592585          5.55
     1.588420          1.06
     1.586799          4.37
     1.586283         26.17
     1.566917         33.41
     1.558049          4.08
     1.555704         12.57
     1.555343          5.32
     1.551271         15.68
     1.546758          3.57
     1.532982          4.00
     1.528589          0.08
     1.527343         15.97
     1.511270         15.27
     1.511238          0.30
     1.508868         19.72
     1.504712         18.19
     1.502881         20.54
     1.495512          0.31
     1.488219         27.66
     1.486972         16.47
     1.481855          4.77
     1.481372          3.89
     1.479526          3.97
     1.477819         28.25
     1.474416         29.53
     1.466317          2.59
     1.466302          7.26
     1.452554         14.70
     1.449767         20.58
     1.445762         14.21
     1.443250         14.84
     1.440463         14.63
     1.434233         20.27
     1.431815          2.36
     1.431142         24.03
     1.428047          2.27
     1.418483          0.58
     1.415330          0.49
     1.412621          5.03
     1.410848          1.06
     1.409507          0.66
     1.409172          0.78
     1.408672          1.20
     1.394007          0.64
     1.386723          0.13
     1.375956         10.30
     1.371272          2.20
     1.370759          6.33
     1.366588          6.59
     1.364067          2.58
     1.363731         10.02
     1.355933          6.14
     1.354262         10.54
     1.337586          2.88
     1.334592          6.04
     1.332840         40.58
     1.327030          2.55
     1.323545          6.68
     1.321339          5.71
     1.320252         15.08
     1.314361         15.57
     1.306686          7.38
     1.305248          1.29
     1.303336          7.44
     1.296102          7.67
     1.292409          8.62
     1.291966          0.41
     1.291805          6.16
     1.290583          6.87
     1.288276          7.05
     1.286550          0.68
     1.280433          0.64
     1.277831          5.19
     1.277445          8.76
     1.277376          6.98
     1.276823         14.00
     1.275792          9.35
     1.274958          6.82
     1.272980          5.85
     1.271507          3.10
     1.270810          3.66
     1.268553         14.94
     1.264947          4.10
     1.264278          3.65
     1.264272          3.08
     1.262133          3.77
     1.259252         18.35
     1.257147         12.92
     1.256198         12.82
     1.255826          4.33
     1.249961          3.55
     1.247920         20.19
     1.247224         17.40
     1.246717          7.63
     1.246710         20.05
     1.243401         17.09
     1.243346          1.44
     1.239899          7.35
     1.237885          9.89
     1.237453          9.69
     1.236614          9.39
     1.236217          5.30
     1.235566          7.24
     1.233897         10.94
     1.233236         19.89
     1.228652          6.91
     1.219327          6.62
     1.211956          2.93
     1.209645          3.11
     1.207555          8.39
     1.206891         10.65
     1.206203          3.22
     1.197889          6.88
     1.193488          9.53
     1.187121          5.75
     1.184655          2.54
     1.183817          5.09
     1.182266          9.47
     1.180592         26.83
     1.180349          4.48
     1.179608          2.75
     1.179150          4.75
     1.178943          0.80
     1.177378          1.10
     1.175387          5.70
     1.174043          4.18
     1.173042          0.39
     1.164453          4.05
     1.164419          2.91
     1.164299          1.28
     1.161525          0.93
     1.161400          9.46
     1.161117          6.70
     1.160444          0.96
     1.158285          1.44
     1.157689          0.83
     1.156473          0.94
     1.155627          1.87
     1.149552          0.56
     1.148747          0.28
     1.148595          4.55
     1.144794          3.14
     1.144153          5.64
     1.143259          5.73
     1.142555          0.19
     1.142043          0.84
     1.141901          0.90
     1.140518          0.27
     1.138229          1.27
     1.138184          1.02
     1.137908         22.64
     1.136676          1.43
     1.133638          1.83
     1.123928          1.56
     1.123153          4.28
     1.120345          1.64
     1.119477          5.88
     1.119166          1.89
     1.118564          1.46
     1.118198          4.22
     1.118160          5.07
     1.115600          2.52
     1.115591          7.74
     1.113604          7.17
     1.112613          1.96
     1.111849          1.52
     1.111621          6.77
     1.107932          1.95
     1.105238          4.60
     1.104702          0.05
     1.098978          0.45
     1.096716          1.87
     1.096518          0.09
     1.094730          1.11
     1.093645          1.99
     1.091697          0.56
     1.090992          0.27
     1.087421          3.00
     1.084282          0.89
     1.081390          2.26
     1.079511          0.24
     1.078816          0.66
     1.077310          0.71
     1.075617          4.48
     1.075383          1.10
     1.074732          1.89
     1.073835          4.94
     1.068620          0.66
     1.068086          2.34
     1.066632          2.43
     1.066272          2.08
     1.066205          4.59
     1.065448          1.57
     1.063394          2.45
     1.062260          1.45
     1.062238          1.70
     1.061334          3.33
     1.061021          1.80
     1.059566          4.49
     1.058318          2.83
     1.057866          2.43
     1.057842          3.81
     1.053987          1.49
     1.052239          1.28
     1.052201          0.92
     1.052168          3.74
     1.051463          0.07
     1.050595          4.95
     1.050165          0.72
     1.048851          1.68
     1.047865          0.68
     1.047847          0.56
     1.046708          0.02
     1.045708          3.50
     1.043382          0.49
     1.042598          0.37
     1.042058          1.33
     1.041921          3.26
     1.039684          3.11
     1.039609          3.17
     1.036805          0.18
     1.035145          2.24
     1.034478          1.73
     1.031974          0.27
     1.031172          0.33
     1.030048          6.89
     1.029300          0.76
     1.029240          0.11
     1.022045          0.36
     1.021988          0.66
     1.021573          1.21
     1.021002          5.31
     1.019602          0.97
     1.019541          1.10
     1.018401          6.86
     1.016521          6.11
     1.015716          1.04
     1.014285          0.68
     1.014061          0.24
     1.013438          0.61
     1.013124          1.57
     1.012438          1.50
     1.011909          1.94
     1.008818          1.59
     1.008213          0.42
##############################################################################
###                            Comments                                    ###
##############################################################################
###   Diffraction pattern calculated by Match!. 
###   I/Ic calculated by Match!. 
###   Space group has been derived from given symmetry operations. 
##############################################################################


