##############################################################################
###               Crystal structure data exported by Match!                ###
##############################################################################
###                           Data published by:                           ###
###                                                                        ###
###               COD (Crystallography Open Database)
##############################################################################
data_9010317
_citation_journal_full    'American Mineralogist'
_citation_journal_volume  '92'
_citation_page_first  '1464'
_citation_page_last   '1473'
_citation_year  '2007'
_citation_title  'Jarosite - hydronium jarosite solid solution series withfull iron occupancy: Mineralogy and crystal chemistryLocality: Rio Tonto, Huelva, SpainSample: 7-13-2-1'
loop_
_publ_author_name
  'Basciano L. C.'
  'Peterson R. C.'
_chemical_formula_sum  'Fe3 H7 K0.02 O14 S2'
_chemical_name_mineral  'Jarosite'
_symmetry_space_group_name_H-M 'R -3 m'
_space_group_IT_number 166
_space_group_crystal_system 'trigonal (hexagonal axes)'
loop_
_symmetry_equiv_pos_as_xyz
   'x, y, z'
   'x+0.66667, y+0.33333, z+0.33333'
   'x+0.33333, y+0.66667, z+0.66667'
   '-y, x-y, z'
   '-y+0.66667, x-y+0.33333, z+0.33333'
   '-y+0.33333, x-y+0.66667, z+0.66667'
   '-x+y, -x, z'
   '-x+y+0.66667, -x+0.33333, z+0.33333'
   '-x+y+0.33333, -x+0.66667, z+0.66667'
   'x-y, -y, -z'
   'x-y+0.66667, -y+0.33333, -z+0.33333'
   'x-y+0.33333, -y+0.66667, -z+0.66667'
   '-x, -x+y, -z'
   '-x+0.66667, -x+y+0.33333, -z+0.33333'
   '-x+0.33333, -x+y+0.66667, -z+0.66667'
   'y, x, -z'
   'y+0.66667, x+0.33333, -z+0.33333'
   'y+0.33333, x+0.66667, -z+0.66667'
   '-x, -y, -z'
   '-x+0.66667, -y+0.33333, -z+0.33333'
   '-x+0.33333, -y+0.66667, -z+0.66667'
   'y, -x+y, -z'
   'y+0.66667, -x+y+0.33333, -z+0.33333'
   'y+0.33333, -x+y+0.66667, -z+0.66667'
   'x-y, x, -z'
   'x-y+0.66667, x+0.33333, -z+0.33333'
   'x-y+0.33333, x+0.66667, -z+0.66667'
   '-x+y, y, z'
   '-x+y+0.66667, y+0.33333, z+0.33333'
   '-x+y+0.33333, y+0.66667, z+0.66667'
   'x, x-y, z'
   'x+0.66667, x-y+0.33333, z+0.33333'
   'x+0.33333, x-y+0.66667, z+0.66667'
   '-y, -x, z'
   '-y+0.66667, -x+0.33333, z+0.33333'
   '-y+0.33333, -x+0.66667, z+0.66667'
_cell_length_a        7.34780
_cell_length_b        7.34780
_cell_length_c       17.02800
_cell_angle_alpha    90.0000
_cell_angle_beta     90.0000
_cell_angle_gamma   120.0000
loop_
_atom_site_label
_atom_site_fract_x
_atom_site_fract_y
_atom_site_fract_z
_atom_site_occupancy
_atom_site_B_iso_or_equiv
k      0.000   0.000   0.000    0.02000    1.399
o      0.000   0.000   0.000    1.00000    1.399
fe      0.167   -0.167   -0.167    1.00000    1.950
s      0.000   0.000   0.309    1.00000    1.099
o      0.000   0.000   0.395    1.00000    2.600
o      0.224   -0.224   -0.057    1.00000    2.199
o      0.127   -0.127   0.136    1.00000    0.900
h      0.165   -0.165   0.100    1.00000    1.999
_cell_measurement_wavelength    1.541874
_cell_measurement_radiation   'x-rays'
_exptl_crystal_density_diffrn    2.900000
loop_
_pd_peak_d_spacing
_pd_peak_intensity
     5.960761        176.16
     5.676000        402.20
     5.097054       1000.00
     3.673900         58.10
     3.538249         83.91
     3.127563        899.36
     3.084201        934.97
     3.002627         28.04
     2.980381         83.03
     2.838000        159.01
     2.548527        208.60
     2.381494          3.49
     2.324925         27.51
     2.314552          4.94
     2.272206        278.37
     2.245940          7.87
     2.121127          7.97
     2.094029          5.44
     2.018570          8.00
     1.986920        305.74
     1.964595          0.72
     1.932475        110.31
     1.892000         59.47
     1.836950        306.68
     1.769125         37.67
     1.755480          0.20
     1.747702         69.02
     1.728146         53.53
     1.710304         12.72
     1.699018          0.76
     1.682054         13.12
     1.644925          0.00
     1.630327         47.19
     1.593949         64.87
     1.583948         47.46
     1.566969         29.98
     1.563781         47.97
     1.542100        140.02
     1.504133          0.03
     1.501313        172.80
     1.490190         50.55
     1.454524         13.46
     1.441343         34.67
     1.438861         35.11
     1.428514         21.77
     1.419000          1.85
     1.411930         24.52
     1.391990         37.95
     1.389754          0.23
     1.388604          4.08
     1.380917         15.07
     1.358601          9.11
     1.348826         65.64
     1.341778          2.40
     1.331410         26.29
     1.323696          3.78
     1.317952         30.30
     1.301690          0.02
     1.282948         10.88
     1.274263          2.02
     1.269136          0.39
     1.258692          0.24
     1.251747         47.01
     1.247303          2.50
     1.225422          9.36
     1.224633         17.25
     1.219351          0.00
     1.211221          4.01
     1.203905          1.79
     1.199578         28.99
     1.197088         13.86
     1.194659          0.81
     1.192152          0.28
     1.190747          6.55
     1.179416          8.89
     1.163770          0.09
     1.162463         23.78
     1.157276         25.27
     1.150319         29.54
     1.140331          0.00
     1.136103          3.50
     1.135200          0.47
     1.133947         42.18
     1.132737         10.98
     1.127668          1.33
     1.124415          0.19
     1.122970         13.43
     1.119456          7.17
     1.109439         17.76
     1.108306          0.01
     1.103809          2.75
     1.092311          5.63
     1.085391         11.97
     1.084604          0.41
     1.083510          4.75
     1.078029          1.89
     1.062070          1.18
     1.060564         13.44
     1.051816         14.34
     1.049671          0.01
     1.047014          9.19
     1.044165          0.02
     1.042521          5.24
     1.038325          4.92
     1.034416          2.66
     1.028067          0.13
     1.019411          0.03
     1.018956          0.44
     1.015908          0.01
     1.011191          0.80
     1.009285         17.53
     1.006923          7.29
##############################################################################
###                            Comments                                    ###
##############################################################################
###   Diffraction pattern calculated by Match!. 
###   I/Ic calculated by Match!. 
##############################################################################


