##############################################################################
###               Crystal structure data exported by Match!                ###
##############################################################################
###                           Data published by:                           ###
###                                                                        ###
###               COD (Crystallography Open Database)
##############################################################################
data_9007163
_citation_journal_full    'Physics and Chemistry of Minerals'
_citation_journal_volume  '30'
_citation_page_first  '167'
_citation_page_last   '176'
_citation_year  '2003'
_citation_title  'Compression mechanisms of coesiteSample: X1P8, P = 2.248 GPa'
loop_
_publ_author_name
  'Angel R. J.'
  'Shaw C. S. J.'
  'Gibbs G. V.'
_chemical_formula_sum  'O2 Si'
_chemical_name_mineral  'Coesite'
_symmetry_space_group_name_H-M 'C 1 2/c 1'
_space_group_IT_number 15
_space_group_crystal_system 'monoclinic'
loop_
_symmetry_equiv_pos_as_xyz
   'x, y, z'
   'x+0.5, y+0.5, z'
   '-x, y, -z+0.5'
   '-x+0.5, y+0.5, -z+0.5'
   '-x, -y, -z'
   '-x+0.5, -y+0.5, -z'
   'x, -y, z+0.5'
   'x+0.5, -y+0.5, z+0.5'
_cell_length_a        7.06660
_cell_length_b       12.30490
_cell_length_c        7.14620
_cell_angle_alpha    90.0000
_cell_angle_beta    120.5400
_cell_angle_gamma    90.0000
loop_
_atom_site_label
_atom_site_fract_x
_atom_site_fract_y
_atom_site_fract_z
_atom_site_occupancy
_atom_site_B_iso_or_equiv
si      0.139   0.109   0.071    1.00000    0.480
si      0.508   0.158   0.543    1.00000    0.480
o      0.000   0.000   0.000    1.00000    0.810
o      0.500   0.113   0.750    1.00000    0.690
o      0.260   0.127   0.935    1.00000    0.709
o      0.314   0.102   0.327    1.00000    0.780
o      0.023   0.212   0.475    1.00000    0.700
_cell_measurement_wavelength    1.541874
_cell_measurement_radiation   'x-rays'
_cell_measurement_pressure       2250000.000000
_exptl_crystal_density_diffrn    2.983000
loop_
_pd_peak_d_spacing
_pd_peak_intensity
     6.152450         60.44
     5.515829          7.29
     5.455421          4.47
     4.351284         37.79
     3.431347         67.33
     3.415838        136.48
     3.401345        357.53
     3.387832        698.18
     3.085254        963.51
     3.077420        812.53
     3.076225       1000.00
     3.063686        821.10
     3.043142        171.91
     2.757914         15.08
     2.752315         83.30
     2.751673         61.84
     2.727710        121.47
     2.694172         96.10
     2.672955        290.67
     2.319977        105.75
     2.295421         52.24
     2.285884          7.13
     2.281525         29.21
     2.279926          5.34
     2.273605         75.26
     2.267024         53.64
     2.186332         24.08
     2.178405         39.49
     2.175642         23.67
     2.163428         52.69
     2.156363          3.51
     2.050817          0.36
     2.030160         22.58
     2.028689          7.59
     2.026763          1.76
     2.019415         30.36
     2.017683        102.33
     2.015020          5.31
     2.010434          0.44
     2.001736         30.15
     1.946256          0.88
     1.945651          0.17
     1.861912          7.37
     1.843297         15.97
     1.838610         85.40
     1.818474        102.79
     1.786542        162.66
     1.773636        114.76
     1.766426          1.99
     1.762015          0.10
     1.715673          0.28
     1.707919          8.73
     1.706842         33.73
     1.706587         53.33
     1.700672         97.12
     1.699133          8.35
     1.697834         28.75
     1.696512          7.70
     1.694428         11.86
     1.693916         29.62
     1.690581         17.32
     1.688815         56.06
     1.688166          0.79
     1.685596          3.07
     1.684140        127.51
     1.682909          2.26
     1.672828          7.15
     1.643159        166.80
     1.630322          6.09
     1.582701          2.63
     1.580582         12.10
     1.578205          1.15
     1.577297         39.42
     1.573007         36.82
     1.570563         47.43
     1.565415         37.02
     1.561377         12.37
     1.544906         42.90
     1.542627         40.18
     1.542027          0.08
     1.538710         15.60
     1.538113         45.98
     1.531843         26.74
     1.531402          7.56
     1.528964         73.69
     1.521571         31.78
     1.496309          0.05
     1.492734          3.99
     1.492222         27.32
     1.491327          5.03
     1.481710          1.20
     1.477070         14.95
     1.450428          0.33
     1.410601         12.14
     1.410252         20.86
     1.407357          0.87
     1.405867          0.50
     1.404681         11.56
     1.401107          6.97
     1.399636         13.59
     1.398802         26.54
     1.398097          1.08
     1.397360         15.13
     1.392394         17.41
     1.392301          1.84
     1.389512         34.05
     1.382704          0.15
     1.378957          4.92
     1.376534          1.51
     1.376157          1.43
     1.375837          5.66
     1.372732          6.00
     1.367480          2.16
     1.363855          0.00
     1.347086          0.83
     1.341827         16.00
     1.338825        121.17
     1.338399         84.17
     1.336477         55.16
     1.336309         47.34
     1.334837          0.91
     1.334794         36.40
     1.333968         66.08
     1.330990         12.36
     1.330416          1.94
     1.328518         28.34
     1.326127         50.18
     1.323637         39.05
     1.321928          4.20
     1.317958         73.36
     1.311122         65.79
     1.304572         10.76
     1.298300         57.38
     1.288525          5.33
     1.285143         21.13
     1.279602         41.82
     1.278973          8.80
     1.276923         85.66
     1.276178          3.90
     1.276082         50.05
     1.274643          5.06
     1.272756          9.93
     1.264825          0.01
     1.235646          0.11
     1.232798          3.79
     1.230796          9.39
     1.230662         49.80
     1.230490          7.52
     1.229915          5.07
     1.227941         17.68
     1.227763          0.25
     1.226773         13.23
     1.222071          6.26
     1.221971         41.08
     1.221109          1.32
     1.219402          0.01
     1.217791         10.55
     1.217728          0.47
     1.215861         41.34
     1.211344         18.35
     1.207046         10.89
     1.206613          0.36
     1.185488         35.14
     1.181768          2.49
     1.181465         27.75
     1.180024          0.74
     1.178693         28.58
     1.177903         29.68
     1.177029         44.81
     1.176113          0.47
     1.176070         31.79
     1.169805          0.04
     1.169500          1.19
     1.169360          0.25
     1.168217          5.97
     1.166952         29.55
     1.166905          0.19
     1.165630         12.61
     1.162023          1.58
     1.160049          0.00
     1.159988          6.02
     1.158737         16.94
     1.157711          0.06
     1.156720          1.93
     1.156621         19.03
     1.153254          2.92
     1.151206         14.08
     1.148927          0.52
     1.147711          0.10
     1.143782          4.88
     1.142942          2.49
     1.142864          4.95
     1.142543          0.33
     1.142095          0.10
     1.140763          5.92
     1.139963          1.97
     1.138613          0.72
     1.137758          1.11
     1.136803          1.55
     1.133782          5.37
     1.133512          2.35
     1.131567          2.63
     1.129277         12.44
     1.127197         39.66
     1.114825         11.22
     1.105714          0.43
     1.104596         19.85
     1.103548          0.29
     1.103166          7.33
     1.100687          3.22
     1.100199          0.59
     1.099787          2.78
     1.098204          2.83
     1.098178         12.28
     1.095788         15.51
     1.094381         10.65
     1.093166          0.03
     1.092118          1.15
     1.091084         15.16
     1.089202          0.43
     1.088991          7.42
     1.088795          0.28
     1.088295         13.46
     1.087821          0.01
     1.085436          3.34
     1.085230          3.30
     1.082707          3.34
     1.081714          0.25
     1.079863          0.56
     1.078181          0.52
     1.077147         20.96
     1.072076         21.65
     1.071642          3.27
     1.069671          1.13
     1.069205         20.92
     1.069098         10.96
     1.068551         20.49
     1.067534          3.07
     1.067042          7.38
     1.066201          7.48
     1.065439          0.24
     1.065095          0.85
     1.064777          0.01
     1.062557          0.36
     1.060435          0.95
     1.060104          1.46
     1.056218          2.23
     1.055438          3.90
     1.055245          6.22
     1.042957         22.94
     1.040553          0.01
     1.036377          6.20
     1.030796          0.16
     1.028418          0.00
     1.025807          2.37
     1.025408          0.17
     1.021229          4.90
     1.015921          0.03
     1.015080          0.10
     1.014381         19.49
     1.014345          0.02
     1.014315          4.98
     1.013607         16.74
     1.013381          4.17
     1.011994          1.47
     1.011839          0.09
     1.011467          5.49
     1.010333          5.60
     1.010040          9.23
     1.009708         23.56
     1.009667         26.49
     1.008950          2.75
     1.008842         13.83
     1.007623          0.32
     1.007510          4.73
     1.007076          0.10
     1.006502          0.44
##############################################################################
###                            Comments                                    ###
##############################################################################
###   Diffraction pattern calculated by Match!. 
###   I/Ic calculated by Match!. 
###   Space group has been derived from given symmetry operations. 
##############################################################################


