##############################################################################
###               Crystal structure data exported by Match!                ###
##############################################################################
###                           Data published by:                           ###
###                                                                        ###
###               COD (Crystallography Open Database)
##############################################################################
data_9013436
_citation_journal_full    'Materials Research Bulletin'
_citation_journal_volume  '14'
_citation_page_first  '1571'
_citation_page_last   '1581'
_citation_year  '1979'
_citation_title  'Crystal growth and structure of BiVO4Locality: syntheticSample: T = 4.5 K'
loop_
_publ_author_name
  'Sleight A. W.'
  'Chen H.-Y.'
  'Ferretti A.'
  'Cox D. E.'
_chemical_formula_sum  'Bi O4 V'
_chemical_name_mineral  'Clinobisvanite'
_symmetry_space_group_name_H-M 'I 1 1 2/b'
_space_group_IT_number 15
_space_group_crystal_system 'monoclinic'
loop_
_symmetry_equiv_pos_as_xyz
   'x, y, z'
   'x+0.5, y+0.5, z+0.5'
   '-x, -y+0.5, z'
   '-x+0.5, -y, z+0.5'
   '-x, -y, -z'
   '-x+0.5, -y+0.5, -z+0.5'
   'x, y+0.5, -z'
   'x+0.5, y, -z+0.5'
_cell_length_a        5.21460
_cell_length_b        5.08420
_cell_length_c       11.70630
_cell_angle_alpha    90.0000
_cell_angle_beta     90.0000
_cell_angle_gamma    90.3940
loop_
_atom_site_label
_atom_site_fract_x
_atom_site_fract_y
_atom_site_fract_z
_atom_site_occupancy
_atom_site_B_iso_or_equiv
bi      0.000   0.250   0.636    1.00000    0.120
v      0.000   0.250   0.139    1.00000    0.199
o      0.151   0.510   0.210    1.00000    0.300
o      0.263   0.381   0.448    1.00000    0.280
_cell_measurement_wavelength    1.541874
_cell_measurement_radiation   'x-rays'
_cell_measurement_temperature    4.500000
_exptl_crystal_density_diffrn    6.933000
loop_
_pd_peak_d_spacing
_pd_peak_intensity
     5.853150         60.59
     4.763284        370.86
     4.663275        489.63
     3.124197        212.66
     3.098851        983.36
     3.095465         64.04
     3.083528       1000.00
     2.926575        313.81
     2.607238        219.66
     2.542040        221.76
     2.381642         22.02
     2.331637          0.99
     2.283946         90.51
     2.281842         62.69
     2.277790          5.35
     2.269614        152.80
     2.248534        123.74
     2.236831         38.57
     2.135850         41.34
     2.126602        143.78
     1.998264         74.83
     1.990036         29.90
     1.975780         73.27
     1.967826        108.18
     1.951050         19.57
     1.946745        274.91
     1.919149        269.95
     1.826395        113.99
     1.813883        125.30
     1.743488          5.86
     1.732593          5.40
     1.720948        143.95
     1.719310         39.81
     1.718310        152.66
     1.677209         39.68
     1.650266         43.48
     1.645623         37.01
     1.637534          7.49
     1.632997          7.94
     1.592438         63.98
     1.588594          9.11
     1.587761         48.17
     1.586472        151.42
     1.580294        117.99
     1.562098         29.32
     1.556807        109.59
     1.554425         24.60
     1.550968        147.83
     1.549426        116.04
     1.547733         24.89
     1.541764        109.12
     1.463287         26.48
     1.436090          7.19
     1.431503         12.41
     1.428672          9.80
     1.419681         23.08
     1.414943         29.69
     1.413975          8.50
     1.409596          9.13
     1.406207         13.63
     1.395600          3.66
     1.372799         23.16
     1.358350         17.50
     1.357907          2.27
     1.357051         36.49
     1.355316          1.89
     1.350787         20.29
     1.350477         23.46
     1.348237         32.84
     1.342875         15.03
     1.338863          4.72
     1.333348         14.41
     1.331455          9.71
     1.328457         13.43
     1.303619         37.15
     1.276052         56.50
     1.272442          0.02
     1.271020         33.06
     1.268185         49.97
     1.262030          0.52
     1.260114         26.00
     1.259054         44.16
     1.257543         17.32
     1.255960         63.03
     1.253437         11.66
     1.244072         64.31
     1.242072          5.18
     1.241086         37.29
     1.229978         10.26
     1.226218          7.64
     1.226135         11.77
     1.220519          8.20
     1.217505         22.76
     1.211926         27.57
     1.205116         16.23
     1.203228          4.05
     1.199629          7.93
     1.192077         55.62
     1.190821         51.12
     1.190343          1.41
     1.184246         50.30
     1.179016         13.91
     1.175629         14.32
     1.170630         12.21
     1.165819         44.49
     1.163234         30.18
     1.156756         26.28
     1.145598         28.08
     1.141973         33.07
     1.140921          1.78
     1.139409         25.57
     1.138895         30.47
     1.135310         24.71
     1.134807          2.34
     1.133795         18.27
     1.131139          0.34
     1.129640          2.52
     1.124267          0.27
     1.124182          1.80
     1.118415          0.10
     1.117607          4.99
     1.114782         27.72
     1.114064         21.47
     1.112844         19.64
     1.109995         19.19
     1.094252         13.25
     1.093605          5.31
     1.092218         12.41
     1.090959         25.05
     1.090901          4.45
     1.086940         19.01
     1.084809          2.38
     1.084373         14.17
     1.083928          6.92
     1.082394         11.12
     1.080975         35.23
     1.080857          3.18
     1.075771         36.39
     1.067925         15.50
     1.066779         36.17
     1.064970          8.34
     1.063301         21.57
     1.061776         37.43
     1.042715         16.90
     1.041634          0.14
     1.041399          1.05
     1.038781          6.76
     1.032950         30.07
     1.032686          9.24
     1.031822         18.36
     1.027843         32.95
     1.025898         13.30
     1.025399          7.93
     1.018753          7.29
     1.013002         11.29
     1.008808          2.44
     1.007732         32.69
     1.007532         12.64
     1.006684          2.24
##############################################################################
###                            Comments                                    ###
##############################################################################
###   Diffraction pattern calculated by Match!. 
###   I/Ic calculated by Match!. 
###   Space group has been derived from given symmetry operations. 
##############################################################################


