##############################################################################
###               Crystal structure data exported by Match!                ###
##############################################################################
###                           Data published by:                           ###
###                                                                        ###
###               COD (Crystallography Open Database)
##############################################################################
data_9008227
_citation_journal_full    'Zeitschrift fur Kristallographie'
_citation_journal_volume  '138'
_citation_page_first  '274'
_citation_page_last   '298'
_citation_year  '1973'
_citation_title  'High-temperature single-crystal study of the cristobalite inversionNote: Cell has been correctedSample: T = 142 CLocality: Ellora Caves, Hyderabad State, India'
loop_
_publ_author_name
  'Peacor D. R.'
_chemical_formula_sum  'O2 Si'
_chemical_name_mineral  'Cristobalite'
_symmetry_space_group_name_H-M 'P 41 21 2'
_space_group_IT_number 92
_space_group_crystal_system 'tetragonal'
loop_
_symmetry_equiv_pos_as_xyz
   'x, y, z'
   '-y+0.5, x+0.5, z+0.25'
   '-x, -y, z+0.5'
   'y+0.5, -x+0.5, z+0.75'
   'x+0.5, -y+0.5, -z+0.75'
   '-x+0.5, y+0.5, -z+0.25'
   'y, x, -z'
   '-y, -x, -z+0.5'
_cell_length_a        4.98900
_cell_length_b        4.98900
_cell_length_c        6.99100
_cell_angle_alpha    90.0000
_cell_angle_beta     90.0000
_cell_angle_gamma    90.0000
loop_
_atom_site_label
_atom_site_fract_x
_atom_site_fract_y
_atom_site_fract_z
_atom_site_occupancy
_atom_site_B_iso_or_equiv
si      0.298   0.298   0.000    1.00000    1.038
o      0.241   0.100   0.176    1.00000    2.103
_cell_measurement_wavelength    1.541874
_cell_measurement_radiation   'x-rays'
_cell_measurement_temperature    415.100000
_exptl_crystal_density_diffrn    2.294000
loop_
_pd_peak_d_spacing
_pd_peak_intensity
     4.060972       1000.00
     3.527756          5.24
     3.149487         82.22
     2.862762         99.53
     2.494500        133.61
     2.483017         49.47
     2.349418          0.83
     2.231149          0.00
     2.125526         25.72
     2.111363          1.69
     2.030486         26.52
     1.944408         46.61
     1.880690         49.11
     1.763878          4.37
     1.747750          7.38
     1.710280          0.79
     1.702876         23.78
     1.649463          4.64
     1.617856         40.12
     1.611584         15.18
     1.577660          3.33
     1.574743          2.58
     1.566089          0.21
     1.538960         23.80
     1.501711         25.34
     1.437980         24.81
     1.431381         14.55
     1.406416         13.65
     1.383700          0.02
     1.375873         22.94
     1.357368          9.64
     1.353657          5.72
     1.346327         16.95
     1.306422         19.74
     1.299829          0.33
     1.286565         20.07
     1.247250          1.36
     1.241509          8.29
     1.227862         11.05
     1.219671          1.71
     1.210010         14.89
     1.204766          0.03
     1.192283          1.82
     1.189766         13.67
     1.184780         14.64
     1.175919          2.56
     1.174709          2.75
     1.171103          6.82
     1.159628          4.22
     1.143440          2.17
     1.134634          0.01
     1.115574          0.02
     1.114542          5.59
     1.106382         15.68
     1.101637         10.24
     1.099650          3.62
     1.095710          2.10
     1.084865          3.55
     1.073874          1.59
     1.070203          0.23
     1.062763          4.59
     1.055681          0.16
     1.049829          2.58
     1.046398          3.36
     1.032812          0.14
     1.015243          0.95
##############################################################################
###                            Comments                                    ###
##############################################################################
###   Diffraction pattern calculated by Match!. 
###   I/Ic calculated by Match!. 
###   Space group has been derived from given symmetry operations. 
##############################################################################


