##############################################################################
###               Crystal structure data exported by Match!                ###
##############################################################################
###                           Data published by:                           ###
###                                                                        ###
###               COD (Crystallography Open Database)
##############################################################################
data_4124075
_citation_journal_full    'Journal of the American Chemical Society'
_citation_journal_volume  '126'
_citation_page_first  '9769'
_citation_page_last   '9775'
_citation_year  '2004'
_citation_title  'Chemical evaluation of hypothetical uninodal zeolites'
loop_
_publ_author_name
  'Foster M.D.'
  'Friedrichs O.D.'
  'Bell R.G.'
  'Klinowski J.'
  'Paz F.A.A.'
_chemical_formula_sum  'O2 Si'
_chemical_name_common  'Silica'
_symmetry_space_group_name_H-M 'P 65 2 2'
_space_group_IT_number 179
_space_group_crystal_system 'hexagonal'
loop_
_symmetry_equiv_pos_as_xyz
   'x, y, z'
   'x-y, x, z+0.83333'
   '-y, x-y, z+0.66667'
   '-x, -y, z+0.5'
   '-x+y, -x, z+0.33333'
   'y, -x+y, z+0.16667'
   'x-y, -y, -z'
   '-x, -x+y, -z+0.33333'
   'y, x, -z+0.66667'
   '-y, -x, -z+0.16667'
   '-x+y, y, -z+0.5'
   'x, x-y, -z+0.83333'
_cell_length_a        7.22130
_cell_length_b        7.22130
_cell_length_c        6.90717
_cell_angle_alpha    90.0000
_cell_angle_beta     90.0000
_cell_angle_gamma   120.0000
_cell_formula_units_Z 6
loop_
_atom_site_label
_atom_site_fract_x
_atom_site_fract_y
_atom_site_fract_z
_atom_site_occupancy
_atom_site_B_iso_or_equiv
si      0.767   0.233   0.583    1.00000    1.000
o      0.687   0.000   0.500    1.00000    1.000
o      0.778   0.389   0.417    1.00000    1.000
_cell_measurement_wavelength    1.541874
_cell_measurement_radiation   'x-rays'
_exptl_crystal_density_diffrn    1.919000
loop_
_pd_peak_d_spacing
_pd_peak_intensity
     6.253829        385.14
     4.635940       1000.00
     3.610650         20.64
     3.199834        365.18
     3.126915         79.27
     3.023228         96.30
     2.848609          0.93
     2.495733         93.79
     2.363725         24.25
     2.317970          1.75
     2.236398         21.83
     2.160617          4.65
     2.084610          1.37
     1.995701         37.24
     1.950603         87.13
     1.941291         23.62
     1.854020         31.04
     1.805325          8.62
     1.784691         10.00
     1.746650          1.60
     1.734500          1.34
     1.682270         30.07
     1.664506          0.03
     1.649293          6.27
     1.599917         30.08
     1.563457         16.73
     1.557805         11.23
     1.549998         18.54
     1.545313         46.89
     1.524881          1.34
     1.511614         23.81
     1.434727          0.45
     1.424305          0.01
     1.420667          4.80
     1.404743         20.65
     1.394350          2.57
     1.385371         28.08
     1.364697          5.89
     1.348916          1.43
     1.338816         13.72
     1.329810          2.41
     1.324944         27.66
     1.293430          0.67
     1.290225         15.60
     1.269200         10.97
     1.263613          1.94
     1.250766          2.12
     1.247866         18.01
     1.230750          8.09
     1.223743         21.85
     1.217659          9.51
     1.203550         11.54
     1.192683         17.81
     1.185685          0.59
     1.181863          0.02
     1.176016          6.56
     1.173966         13.41
     1.164933         19.76
     1.158985          1.26
     1.151536          1.08
     1.151195          2.72
     1.136514          1.91
     1.132173          3.31
     1.123221          3.48
     1.118199         11.44
     1.108658          6.83
     1.103528          4.17
     1.099060          1.12
     1.097091          0.19
     1.096797          4.52
     1.080590          0.40
     1.080308          1.83
     1.070693          3.59
     1.068148          2.71
     1.066611          0.00
     1.051429          6.84
     1.042305          0.62
     1.035223          4.94
     1.034975          4.40
     1.030636          0.86
     1.028123          0.96
     1.016920          1.75
     1.012956          0.13
     1.009498          0.55
     1.007743          6.53
##############################################################################
###                            Comments                                    ###
##############################################################################
###   Diffraction pattern calculated by Match!. 
###   I/Ic calculated by Match!. 
###   Space group has been derived from given symmetry operations. 
##############################################################################


