##############################################################################
###               Crystal structure data exported by Match!                ###
##############################################################################
###                           Data published by:                           ###
###                                                                        ###
###               COD (Crystallography Open Database)
##############################################################################
data_9006290
_citation_journal_full    'Physics and Chemistry of Minerals'
_citation_journal_volume  '21'
_citation_page_first  '269'
_citation_page_last   '284'
_citation_year  '1994'
_citation_title  'Framework silica structures generated using simulated annealingwith a potential energy function based on an H6Si2O7 moleculeSample: 7'
loop_
_publ_author_name
  'Boisen M. B.'
  'Gibbs G. V.'
  'Bukowinski M. S. T.'
_chemical_formula_sum  'O2 Si'
_chemical_name_common  'Silica'
_symmetry_space_group_name_H-M 'C 2 2 21'
_space_group_IT_number 20
_space_group_crystal_system 'orthorhombic'
loop_
_symmetry_equiv_pos_as_xyz
   'x, y, z'
   'x+0.5, y+0.5, z'
   '-x, -y, z+0.5'
   '-x+0.5, -y+0.5, z+0.5'
   'x, -y, -z'
   'x+0.5, -y+0.5, -z'
   '-x, y, -z+0.5'
   '-x+0.5, y+0.5, -z+0.5'
_cell_length_a        7.49530
_cell_length_b        8.62030
_cell_length_c        4.73050
_cell_angle_alpha    90.0000
_cell_angle_beta     90.0000
_cell_angle_gamma    90.0000
loop_
_atom_site_label
_atom_site_fract_x
_atom_site_fract_y
_atom_site_fract_z
_atom_site_occupancy
_atom_site_B_iso_or_equiv
si      0.197   0.152   0.355    1.00000    1.000
o      0.315   0.209   0.087    1.00000    1.000
o      0.000   0.105   0.250    1.00000    1.000
o      0.713   0.000   0.000    1.00000    1.000
_cell_measurement_wavelength    1.541874
_cell_measurement_radiation   'x-rays'
_exptl_crystal_density_diffrn    2.611000
loop_
_pd_peak_d_spacing
_pd_peak_intensity
     5.656194        294.50
     4.310150        199.92
     3.747650        771.68
     3.628700        693.09
     3.186001       1000.00
     2.937522        213.35
     2.828097         89.51
     2.683029         48.02
     2.427380        299.33
     2.399676          1.23
     2.365250          0.04
     2.333784         93.33
     2.182141         95.42
     2.155075         20.63
     2.140070         58.27
     2.073552          0.95
     2.000199         38.46
     1.961150         56.51
     1.885398         36.45
     1.873825         24.39
     1.868210          0.29
     1.814350        132.89
     1.774252         69.65
     1.751415          3.15
     1.742126         67.45
     1.737612         99.10
     1.718451          2.61
     1.684524         17.43
     1.680185         19.03
     1.615179        110.40
     1.593000         40.86
     1.583282         15.71
     1.518914         13.68
     1.480846          7.85
     1.476895         10.33
     1.474314          6.91
     1.468761          1.42
     1.466052         47.76
     1.453421         24.29
     1.436717         20.27
     1.419002          3.22
     1.414048          3.08
     1.409784         30.97
     1.390257        100.26
     1.377227         36.75
     1.374712          4.54
     1.369760         83.49
     1.359441         82.11
     1.359169         37.29
     1.354814         15.01
     1.341515         37.58
     1.329067         34.21
     1.317793          0.95
     1.290621          3.17
     1.279525         18.18
     1.272567         15.51
     1.252734         16.99
     1.249217         11.76
     1.227933          0.44
     1.216818         29.52
     1.215179          3.95
     1.213690         47.83
     1.209567         34.88
     1.207812          8.21
     1.206494         29.06
     1.204991         11.19
     1.199838          3.98
     1.182625          5.84
     1.176967         48.74
     1.166892          0.78
     1.163011         28.88
     1.161835          1.83
     1.158672          3.41
     1.157593         18.17
     1.149792          1.85
     1.140474         11.27
     1.140153          0.71
     1.131239          7.85
     1.127804         14.68
     1.108413          6.73
     1.104616          0.68
     1.104582         18.76
     1.100217         28.58
     1.091071          9.45
     1.082163          0.56
     1.080874          3.22
     1.080770          2.31
     1.077923          1.00
     1.077538          0.80
     1.075647         16.27
     1.070035         29.48
     1.062591          0.04
     1.062000          1.61
     1.060798         16.38
     1.054785          7.46
     1.053621         10.21
     1.052746          8.88
     1.050626          2.98
     1.036776          5.14
     1.036757          3.60
     1.035582          0.14
     1.027054          1.70
     1.021767          9.45
     1.020524          1.21
     1.016235          0.85
     1.011625         12.19
##############################################################################
###                            Comments                                    ###
##############################################################################
###   Diffraction pattern calculated by Match!. 
###   I/Ic calculated by Match!. 
###   Space group has been derived from given symmetry operations. 
##############################################################################


