##############################################################################
###               Crystal structure data exported by Match!                ###
##############################################################################
###                           Data published by:                           ###
###                                                                        ###
###               COD (Crystallography Open Database)
##############################################################################
data_9015481
_citation_journal_full    'The Canadian Mineralogist'
_citation_journal_volume  '48'
_citation_page_first  '1225'
_citation_page_last   '1236'
_citation_year  '2010'
_citation_title  'Temperature dependence of the structural parametersin the transformation of aragonite to calcite,as determined from in situ synchrotron powder X-ray-diffraction dataNote: T = 458 CNote: P = 101 kPa'
loop_
_publ_author_name
  'Antao S. M.'
  'Hassan I.'
_chemical_formula_sum  'C Ca O3'
_chemical_name_mineral  'Calcite'
_symmetry_space_group_name_H-M 'R -3 c'
_space_group_IT_number 167
_space_group_crystal_system 'trigonal (hexagonal axes)'
loop_
_symmetry_equiv_pos_as_xyz
   'x, y, z'
   'x+0.66667, y+0.33333, z+0.33333'
   'x+0.33333, y+0.66667, z+0.66667'
   '-y, x-y, z'
   '-y+0.66667, x-y+0.33333, z+0.33333'
   '-y+0.33333, x-y+0.66667, z+0.66667'
   '-x+y, -x, z'
   '-x+y+0.66667, -x+0.33333, z+0.33333'
   '-x+y+0.33333, -x+0.66667, z+0.66667'
   'x-y, -y, -z+0.5'
   'x-y+0.66667, -y+0.33333, -z+0.83333'
   'x-y+0.33333, -y+0.66667, -z+0.16667'
   '-x, -x+y, -z+0.5'
   '-x+0.66667, -x+y+0.33333, -z+0.83333'
   '-x+0.33333, -x+y+0.66667, -z+0.16667'
   'y, x, -z+0.5'
   'y+0.66667, x+0.33333, -z+0.83333'
   'y+0.33333, x+0.66667, -z+0.16667'
   '-x, -y, -z'
   '-x+0.66667, -y+0.33333, -z+0.33333'
   '-x+0.33333, -y+0.66667, -z+0.66667'
   'y, -x+y, -z'
   'y+0.66667, -x+y+0.33333, -z+0.33333'
   'y+0.33333, -x+y+0.66667, -z+0.66667'
   'x-y, x, -z'
   'x-y+0.66667, x+0.33333, -z+0.33333'
   'x-y+0.33333, x+0.66667, -z+0.66667'
   '-x+y, y, z+0.5'
   '-x+y+0.66667, y+0.33333, z+0.83333'
   '-x+y+0.33333, y+0.66667, z+0.16667'
   'x, x-y, z+0.5'
   'x+0.66667, x-y+0.33333, z+0.83333'
   'x+0.33333, x-y+0.66667, z+0.16667'
   '-y, -x, z+0.5'
   '-y+0.66667, -x+0.33333, z+0.83333'
   '-y+0.33333, -x+0.66667, z+0.16667'
_cell_length_a        4.97660
_cell_length_b        4.97660
_cell_length_c       17.28400
_cell_angle_alpha    90.0000
_cell_angle_beta     90.0000
_cell_angle_gamma   120.0000
loop_
_atom_site_label
_atom_site_fract_x
_atom_site_fract_y
_atom_site_fract_z
_atom_site_occupancy
_atom_site_B_iso_or_equiv
ca      0.000   0.000   0.000    1.00000    1.879
c      0.000   0.000   0.250    1.00000    3.710
o      0.255   0.000   0.250    1.00000    3.710
_cell_measurement_wavelength    1.541874
_cell_measurement_radiation   'x-rays'
_exptl_crystal_density_diffrn    2.690000
loop_
_pd_peak_d_spacing
_pd_peak_intensity
     3.856844         91.05
     3.051463       1000.00
     2.880667         16.67
     2.488300        142.46
     2.284349        158.96
     2.090907        138.21
     1.931411        180.26
     1.928422         60.95
     1.883057        189.75
     1.621788         24.08
     1.604207         11.27
     1.600785         86.37
     1.525731         23.31
     1.524257         48.34
     1.520308         18.79
     1.473558         13.45
     1.440333         28.57
     1.436621         48.45
     1.359725          8.02
     1.348293         19.43
     1.300690         23.77
     1.285615          8.13
     1.246559         18.37
     1.244150          9.39
     1.216117          0.08
     1.192492          0.02
     1.186838          3.78
     1.185451         20.02
     1.184068          6.87
     1.152071         29.44
     1.142175         17.33
     1.130907          2.34
     1.129706          0.01
     1.075895          0.01
     1.071226          6.54
     1.069188          0.46
     1.047837          9.25
     1.045929         19.04
     1.045600          1.64
     1.045453         15.40
     1.044177          0.03
     1.030015          1.30
     1.017154         17.79
##############################################################################
###                            Comments                                    ###
##############################################################################
###   Cuenca, Spain
###   Diffraction pattern calculated by Match!. 
###   I/Ic calculated by Match!. 
##############################################################################


