##############################################################################
###               Crystal structure data exported by Match!                ###
##############################################################################
###                           Data published by:                           ###
###                                                                        ###
###               COD (Crystallography Open Database)
##############################################################################
data_9008210
_citation_journal_full    'Zeitschrift fur Kristallographie'
_citation_journal_volume  '136'
_citation_page_first  '48'
_citation_page_last   '65'
_citation_year  '1972'
_citation_title  'Refinement of the crystal structures of realgar, AsS and orpiment, As2S3Locality: Lengenbach quarry, Binnatal, Switzerland'
loop_
_publ_author_name
  'Mullen D. J. E.'
  'Nowacki W.'
_chemical_formula_sum  'As S'
_chemical_name_mineral  'Realgar'
_symmetry_space_group_name_H-M 'P 1 21/n 1'
_space_group_IT_number 14
_space_group_crystal_system 'monoclinic'
loop_
_symmetry_equiv_pos_as_xyz
   'x, y, z'
   '-x+0.5, y+0.5, -z+0.5'
   '-x, -y, -z'
   'x+0.5, -y+0.5, z+0.5'
_cell_length_a        9.32500
_cell_length_b       13.57100
_cell_length_c        6.58700
_cell_angle_alpha    90.0000
_cell_angle_beta    106.3800
_cell_angle_gamma    90.0000
loop_
_atom_site_label
_atom_site_fract_x
_atom_site_fract_y
_atom_site_fract_z
_atom_site_occupancy
_atom_site_B_iso_or_equiv
as      0.122   0.021   0.764    1.00000    2.620
as      0.424   0.861   0.856    1.00000    2.651
as      0.321   0.873   0.177    1.00000    2.587
as      0.040   0.839   0.715    1.00000    2.754
s      0.345   0.006   0.701    1.00000    2.585
s      0.214   0.023   0.116    1.00000    2.510
s      0.239   0.774   0.639    1.00000    2.772
s      0.107   0.790   0.051    1.00000    2.853
_cell_measurement_wavelength    1.541874
_cell_measurement_radiation   'x-rays'
_exptl_crystal_density_diffrn    3.554000
loop_
_pd_peak_d_spacing
_pd_peak_intensity
     7.469466         78.60
     6.785500         56.88
     6.024001        413.29
     5.728940        443.08
     5.505939        257.34
     5.406390       1000.00
     4.624595        102.12
     4.587918         23.57
     4.504884         11.93
     4.473261          0.90
     4.346269          0.00
     4.248418         41.57
     4.065845        210.78
     4.036952         28.46
     3.800687         38.31
     3.734733         70.80
     3.678406         49.10
     3.617300          5.44
     3.608881         89.98
     3.392750          4.60
     3.221191         23.88
     3.192309         11.38
     3.180744        296.76
     3.172302        240.75
     3.159825        402.81
     3.156055         28.13
     3.101917         15.03
     3.077506         63.93
     3.049188        318.62
     3.012000          0.96
     2.989218        192.16
     2.975018         63.75
     2.956349        219.62
     2.956146          0.42
     2.940449        147.28
     2.927485        489.16
     2.912679         13.98
     2.864470         84.74
     2.781277        104.85
     2.752969         13.43
     2.730139        115.16
     2.727891        394.45
     2.703195         92.61
     2.691616        134.27
     2.657798          2.48
     2.654307         55.45
     2.636767          3.00
     2.597303        156.90
     2.590442         20.00
     2.545599          8.42
     2.528426         20.60
     2.514385        115.78
     2.507102         15.44
     2.493917          2.02
     2.489822        128.10
     2.474614        147.10
     2.444051         91.64
     2.405355         42.11
     2.394129         85.88
     2.359823         61.84
     2.347472          0.20
     2.345065         15.23
     2.336022          0.04
     2.320457          6.73
     2.312297          4.98
     2.299439         23.59
     2.293959         12.60
     2.291353          0.17
     2.289313          0.10
     2.267868          0.59
     2.261873          1.85
     2.261833        126.76
     2.252442          0.27
     2.239886         46.76
     2.236630         18.41
     2.227110        103.92
     2.206860         20.20
     2.199240         17.42
     2.193087        113.94
     2.192839         88.44
     2.173134         29.31
     2.165000         62.23
     2.150281          1.56
     2.134552          2.46
     2.130800         90.79
     2.129549          5.92
     2.127660        104.75
     2.124209         44.64
     2.117493         38.94
     2.105011         38.07
     2.092250          0.64
     2.086801          0.43
     2.081944          1.93
     2.081621         27.07
     2.067674          0.94
     2.058913          0.17
     2.053301         44.14
     2.045935          3.68
     2.042859         16.23
     2.032922         38.81
     2.028696          5.46
     2.027360          2.64
     2.018476         23.12
     2.016317          0.08
     2.011831          0.61
     2.008000         18.65
     2.007295         20.08
     2.004951          2.82
     1.997876          9.51
     1.986374         11.32
     1.983079         43.42
     1.973406         19.98
     1.945004          5.95
     1.932497          3.27
     1.930434         28.37
     1.927656          0.63
     1.925461          4.61
     1.923537          2.10
     1.917727          2.17
     1.913197         13.15
     1.909647          4.14
     1.900344          8.82
     1.897009          5.00
     1.894737          6.39
     1.868067         16.99
     1.867366          7.28
     1.864999         16.82
     1.862850         44.00
     1.861815          3.29
     1.858592         78.82
     1.855564        112.08
     1.853459          9.53
     1.847633         24.19
     1.845495          2.86
     1.843740         12.25
     1.841800          5.62
     1.839203         67.70
     1.835313          3.01
     1.818646          0.02
     1.816607         97.25
     1.816226          0.78
     1.808650          3.96
     1.804441         15.75
     1.802130         16.03
     1.798310         94.44
     1.793248         11.70
     1.789643         26.19
     1.785817          3.67
     1.785406         56.14
     1.778834          0.50
     1.777128         21.37
     1.773952          3.17
     1.772840          2.32
     1.765621         41.92
     1.764687         11.76
     1.764132         15.54
     1.752027         14.65
     1.748050          0.94
     1.745890         16.57
     1.730162         16.66
     1.729130          5.08
     1.728028         42.91
     1.726083          3.91
     1.724213         20.47
     1.713455         13.84
     1.705832        104.38
     1.696375         39.68
     1.694637         55.15
     1.687387          4.69
     1.686179          0.68
     1.679763         39.00
     1.679201        107.44
     1.676023         27.69
     1.673896         81.85
     1.669560          5.23
     1.668224          3.23
     1.666679         11.81
     1.664309          0.16
     1.664144         26.57
     1.663872          3.94
     1.662955         25.03
     1.660043         25.60
     1.652473          2.38
     1.642236         21.28
     1.638376          2.38
     1.636026         19.35
     1.634348         53.38
     1.632867          4.37
     1.630342          3.92
     1.630207         12.84
     1.625428         14.01
     1.625121          8.26
     1.622513          7.69
     1.621137         27.94
     1.614259          0.04
     1.613647          0.30
     1.611040          0.78
     1.610596         11.47
     1.606936          4.65
     1.605285          0.26
     1.596344         12.80
     1.596154          1.72
     1.595788         34.66
     1.594171          8.19
     1.591253          0.01
     1.591096          1.99
     1.590372          4.64
     1.586151          6.25
     1.583802          4.48
     1.583543          0.69
     1.582686          5.77
     1.581897          1.45
     1.579987         13.72
     1.579912          0.03
     1.578027         42.54
     1.576096          0.67
     1.574490         25.60
     1.574241          0.06
     1.569314          5.58
     1.565186          0.02
     1.563686         14.94
     1.562164          4.13
     1.559951         13.37
     1.552160          7.27
     1.550958         17.32
     1.545242         21.56
     1.543662          0.06
     1.542321          0.02
     1.541532          1.53
     1.539275          7.45
     1.539228          1.26
     1.538753          5.21
     1.537105          6.08
     1.529306          4.71
     1.527247          3.53
     1.524594          0.25
     1.519687          0.06
     1.518879         15.79
     1.515063         20.08
     1.514235          4.77
     1.513281         40.03
     1.512853          1.88
     1.507216          2.78
     1.506000         36.14
     1.505363          0.27
     1.503761          5.08
     1.503349         35.47
     1.501628         17.73
     1.496812         21.32
     1.494609         16.33
     1.493893          0.52
     1.493229          5.48
     1.491885          2.95
     1.491560          4.33
     1.491087          0.70
     1.488908          2.45
     1.487509          0.76
     1.486917          4.42
     1.482407          5.07
     1.482167          0.36
     1.480729         11.14
     1.478174         10.19
     1.478073          0.21
     1.476914         25.06
     1.474508          5.74
     1.474279          0.42
     1.473922          2.71
     1.470225          7.99
     1.469255          1.16
     1.468326         34.24
     1.466716          1.74
     1.464968          0.66
     1.463742         57.32
     1.462759          1.48
     1.461885          0.00
     1.457223          6.88
     1.456339          4.38
     1.452526          5.91
     1.452275         37.59
     1.451355          9.27
     1.451055         13.62
     1.448756          0.31
     1.444748         11.90
     1.443223          5.73
     1.443027         16.05
     1.441087         12.36
     1.438927          0.32
     1.433988          0.48
     1.432503          2.35
     1.432235          6.68
     1.428896          1.09
     1.428891         33.80
     1.426528         16.26
     1.421527          0.42
     1.416139          0.03
     1.413866          5.79
     1.412814          0.20
     1.412787          0.03
     1.411627          2.90
     1.411555         11.67
     1.405064         13.55
     1.403293          0.93
     1.402743         10.55
     1.401717          3.80
     1.394729          1.97
     1.394212          0.34
     1.393587          9.98
     1.392651          2.28
     1.390639          1.68
     1.390392          4.38
     1.389848          8.40
     1.388246          4.23
     1.382764          0.56
     1.381711          0.23
     1.376485          0.79
     1.374774          0.04
     1.373086          0.06
     1.372767          1.26
     1.372445          0.00
     1.370372         21.18
     1.370330          1.50
     1.368675          2.76
     1.368485         22.63
     1.367464          0.32
     1.366955          1.42
     1.366111          6.68
     1.365433          3.06
     1.365070          0.30
     1.363946          3.56
     1.362711          0.37
     1.360963          0.53
     1.360876          1.53
     1.360706          2.06
     1.357100          0.96
     1.355282          2.78
     1.351646          0.22
     1.351597          4.24
     1.348358         10.53
     1.347926          0.04
     1.347541          0.27
     1.345808          2.90
     1.345651          0.22
     1.344058          0.68
     1.341808          2.04
     1.341751          0.64
     1.340640          2.45
     1.334969          1.66
     1.333549          0.44
     1.332775          0.83
     1.332367          0.06
     1.329247         10.15
     1.328899          0.52
     1.328412          2.87
     1.327562          4.50
     1.327154         23.72
     1.326851         10.29
     1.326067          0.00
     1.323920          3.39
     1.322681          4.13
     1.321745          0.00
     1.321255          0.02
     1.321233          2.75
     1.318383          0.24
     1.316870          9.38
     1.315200          1.50
     1.314881          0.21
     1.314428          0.14
     1.313893          1.11
     1.311236          8.25
     1.310315          0.91
     1.309986          0.91
     1.309090          0.03
     1.309082         15.76
     1.306864          0.00
     1.303452          1.97
     1.303259          0.15
     1.303238          0.01
     1.303186          3.77
     1.302861          0.66
     1.301361          2.99
     1.299084          1.21
     1.298652          4.52
     1.297690          0.04
     1.297481          2.30
     1.297270          0.11
     1.297054          2.23
     1.295849          1.38
     1.295221          2.91
     1.293251          7.13
     1.293116          2.72
     1.291931          0.71
     1.290644          0.02
     1.289669          0.36
     1.283301          2.02
     1.280049          1.15
     1.279920          4.26
     1.279847          1.56
     1.279343          0.04
     1.277918          7.91
     1.274872          0.52
     1.273840          0.73
     1.273696         10.58
     1.272800          0.05
     1.272444          0.47
     1.270048          0.31
     1.268425          0.03
     1.268411          2.53
     1.266896          0.55
     1.265071          1.88
     1.264854          3.57
     1.264213          1.52
     1.261833          3.69
     1.260043          0.65
     1.258580          0.18
     1.258484          0.41
     1.258099          9.70
     1.258054          0.59
     1.257193          0.02
     1.256414          0.15
     1.255989          7.39
     1.254907          0.04
     1.254252          0.04
     1.253551          6.22
     1.253091          0.46
     1.252494          1.18
     1.252305          0.17
     1.252021          0.64
     1.251759          0.69
     1.250716          1.52
     1.250288          0.04
     1.246959          1.12
     1.244911          0.02
     1.244263          0.30
     1.242558          0.68
     1.242526          1.12
     1.242262          2.02
     1.242188          1.97
     1.241793          0.23
     1.241118          7.21
     1.240566          1.32
     1.239846          1.63
     1.237455          2.10
     1.237307          0.01
     1.237196          0.63
     1.236442          0.54
     1.236287          0.53
     1.236084         11.10
     1.235343          0.22
     1.235214          1.17
     1.231463          0.01
     1.231322          0.17
     1.231060          6.50
     1.231058          7.62
     1.230863          0.75
     1.230689          1.25
     1.229928          1.55
     1.228067          0.00
     1.226135          0.81
     1.225225          5.86
     1.224736          0.02
     1.222161          3.04
     1.222025          3.54
     1.221322          1.84
     1.217307          0.02
     1.217101          0.04
     1.216959          8.33
     1.216746          3.01
     1.216647          0.50
     1.216572         13.44
     1.215434          0.08
     1.212055          1.02
     1.211775          0.42
     1.211218          0.29
     1.210869          2.38
     1.210296          5.96
     1.208640          2.89
     1.206197          0.36
     1.205767          7.09
     1.205307          0.01
     1.204800          0.02
     1.202960          1.33
     1.202677          0.69
     1.201461          0.56
     1.200705          5.87
     1.200581          0.00
     1.200080          5.23
     1.198903          1.56
     1.198420          3.30
     1.197065          1.19
     1.196026          0.06
     1.192554          2.44
     1.191403          4.01
     1.191281          4.87
     1.189326          0.14
     1.189323          4.96
     1.189246          0.07
     1.188812          1.99
     1.188688          0.00
     1.188095          1.28
     1.187685          7.64
##############################################################################
###                            Comments                                    ###
##############################################################################
###   Diffraction pattern calculated by Match!. 
###   I/Ic calculated by Match!. 
##############################################################################


