##############################################################################
###               Crystal structure data exported by Match!                ###
##############################################################################
###                           Data published by:                           ###
###                                                                        ###
###               COD (Crystallography Open Database)
##############################################################################
data_1512530
_citation_journal_full    'Critical Reviews in Solid State and Materials Sciences'
_citation_journal_volume  '39(1)'
_citation_page_first  '1'
_citation_year  '2014'
_citation_title  'Error Estimates for Solid-State Density-Functional Theory Predictions: AnOverview by Means of the Ground-State Elemental Crystals'
loop_
_publ_author_name
  'Lejaeghere K.'
  'Van Speybroeck V.'
  'Van Oost G.'
  'Cottenier S.'
_chemical_formula_sum  'Pb'
_chemical_name_common  'Lead'
_symmetry_space_group_name_H-M 'F m -3 m'
_space_group_IT_number 225
_space_group_crystal_system 'cubic'
loop_
_symmetry_equiv_pos_as_xyz
   'x, y, z'
   'x+0.5, y+0.5, z'
   'x+0.5, y, z+0.5'
   'x, y+0.5, z+0.5'
   '-y, x, z'
   '-y+0.5, x+0.5, z'
   '-y+0.5, x, z+0.5'
   '-y, x+0.5, z+0.5'
   '-x, -y, z'
   '-x+0.5, -y+0.5, z'
   '-x+0.5, -y, z+0.5'
   '-x, -y+0.5, z+0.5'
   'y, -x, z'
   'y+0.5, -x+0.5, z'
   'y+0.5, -x, z+0.5'
   'y, -x+0.5, z+0.5'
   'x, -z, y'
   'x+0.5, -z+0.5, y'
   'x+0.5, -z, y+0.5'
   'x, -z+0.5, y+0.5'
   'x, -y, -z'
   'x+0.5, -y+0.5, -z'
   'x+0.5, -y, -z+0.5'
   'x, -y+0.5, -z+0.5'
   'x, z, -y'
   'x+0.5, z+0.5, -y'
   'x+0.5, z, -y+0.5'
   'x, z+0.5, -y+0.5'
   'z, y, -x'
   'z+0.5, y+0.5, -x'
   'z+0.5, y, -x+0.5'
   'z, y+0.5, -x+0.5'
   '-x, y, -z'
   '-x+0.5, y+0.5, -z'
   '-x+0.5, y, -z+0.5'
   '-x, y+0.5, -z+0.5'
   '-z, y, x'
   '-z+0.5, y+0.5, x'
   '-z+0.5, y, x+0.5'
   '-z, y+0.5, x+0.5'
   'z, x, y'
   'z+0.5, x+0.5, y'
   'z+0.5, x, y+0.5'
   'z, x+0.5, y+0.5'
   'y, z, x'
   'y+0.5, z+0.5, x'
   'y+0.5, z, x+0.5'
   'y, z+0.5, x+0.5'
   '-y, -z, x'
   '-y+0.5, -z+0.5, x'
   '-y+0.5, -z, x+0.5'
   '-y, -z+0.5, x+0.5'
   'z, -x, -y'
   'z+0.5, -x+0.5, -y'
   'z+0.5, -x, -y+0.5'
   'z, -x+0.5, -y+0.5'
   '-y, z, -x'
   '-y+0.5, z+0.5, -x'
   '-y+0.5, z, -x+0.5'
   '-y, z+0.5, -x+0.5'
   '-z, -x, y'
   '-z+0.5, -x+0.5, y'
   '-z+0.5, -x, y+0.5'
   '-z, -x+0.5, y+0.5'
   '-z, x, -y'
   '-z+0.5, x+0.5, -y'
   '-z+0.5, x, -y+0.5'
   '-z, x+0.5, -y+0.5'
   'y, -z, -x'
   'y+0.5, -z+0.5, -x'
   'y+0.5, -z, -x+0.5'
   'y, -z+0.5, -x+0.5'
   'y, x, -z'
   'y+0.5, x+0.5, -z'
   'y+0.5, x, -z+0.5'
   'y, x+0.5, -z+0.5'
   '-y, -x, -z'
   '-y+0.5, -x+0.5, -z'
   '-y+0.5, -x, -z+0.5'
   '-y, -x+0.5, -z+0.5'
   '-x, z, y'
   '-x+0.5, z+0.5, y'
   '-x+0.5, z, y+0.5'
   '-x, z+0.5, y+0.5'
   '-x, -z, -y'
   '-x+0.5, -z+0.5, -y'
   '-x+0.5, -z, -y+0.5'
   '-x, -z+0.5, -y+0.5'
   'z, -y, x'
   'z+0.5, -y+0.5, x'
   'z+0.5, -y, x+0.5'
   'z, -y+0.5, x+0.5'
   '-z, -y, -x'
   '-z+0.5, -y+0.5, -x'
   '-z+0.5, -y, -x+0.5'
   '-z, -y+0.5, -x+0.5'
   '-x, -y, -z'
   '-x+0.5, -y+0.5, -z'
   '-x+0.5, -y, -z+0.5'
   '-x, -y+0.5, -z+0.5'
   'y, -x, -z'
   'y+0.5, -x+0.5, -z'
   'y+0.5, -x, -z+0.5'
   'y, -x+0.5, -z+0.5'
   'x, y, -z'
   'x+0.5, y+0.5, -z'
   'x+0.5, y, -z+0.5'
   'x, y+0.5, -z+0.5'
   '-y, x, -z'
   '-y+0.5, x+0.5, -z'
   '-y+0.5, x, -z+0.5'
   '-y, x+0.5, -z+0.5'
   '-x, z, -y'
   '-x+0.5, z+0.5, -y'
   '-x+0.5, z, -y+0.5'
   '-x, z+0.5, -y+0.5'
   '-x, y, z'
   '-x+0.5, y+0.5, z'
   '-x+0.5, y, z+0.5'
   '-x, y+0.5, z+0.5'
   '-x, -z, y'
   '-x+0.5, -z+0.5, y'
   '-x+0.5, -z, y+0.5'
   '-x, -z+0.5, y+0.5'
   '-z, -y, x'
   '-z+0.5, -y+0.5, x'
   '-z+0.5, -y, x+0.5'
   '-z, -y+0.5, x+0.5'
   'x, -y, z'
   'x+0.5, -y+0.5, z'
   'x+0.5, -y, z+0.5'
   'x, -y+0.5, z+0.5'
   'z, -y, -x'
   'z+0.5, -y+0.5, -x'
   'z+0.5, -y, -x+0.5'
   'z, -y+0.5, -x+0.5'
   '-z, -x, -y'
   '-z+0.5, -x+0.5, -y'
   '-z+0.5, -x, -y+0.5'
   '-z, -x+0.5, -y+0.5'
   '-y, -z, -x'
   '-y+0.5, -z+0.5, -x'
   '-y+0.5, -z, -x+0.5'
   '-y, -z+0.5, -x+0.5'
   'y, z, -x'
   'y+0.5, z+0.5, -x'
   'y+0.5, z, -x+0.5'
   'y, z+0.5, -x+0.5'
   '-z, x, y'
   '-z+0.5, x+0.5, y'
   '-z+0.5, x, y+0.5'
   '-z, x+0.5, y+0.5'
   'y, -z, x'
   'y+0.5, -z+0.5, x'
   'y+0.5, -z, x+0.5'
   'y, -z+0.5, x+0.5'
   'z, x, -y'
   'z+0.5, x+0.5, -y'
   'z+0.5, x, -y+0.5'
   'z, x+0.5, -y+0.5'
   'z, -x, y'
   'z+0.5, -x+0.5, y'
   'z+0.5, -x, y+0.5'
   'z, -x+0.5, y+0.5'
   '-y, z, x'
   '-y+0.5, z+0.5, x'
   '-y+0.5, z, x+0.5'
   '-y, z+0.5, x+0.5'
   '-y, -x, z'
   '-y+0.5, -x+0.5, z'
   '-y+0.5, -x, z+0.5'
   '-y, -x+0.5, z+0.5'
   'y, x, z'
   'y+0.5, x+0.5, z'
   'y+0.5, x, z+0.5'
   'y, x+0.5, z+0.5'
   'x, -z, -y'
   'x+0.5, -z+0.5, -y'
   'x+0.5, -z, -y+0.5'
   'x, -z+0.5, -y+0.5'
   'x, z, y'
   'x+0.5, z+0.5, y'
   'x+0.5, z, y+0.5'
   'x, z+0.5, y+0.5'
   '-z, y, -x'
   '-z+0.5, y+0.5, -x'
   '-z+0.5, y, -x+0.5'
   '-z, y+0.5, -x+0.5'
   'z, y, x'
   'z+0.5, y+0.5, x'
   'z+0.5, y, x+0.5'
   'z, y+0.5, x+0.5'
_cell_length_a        5.05357
_cell_length_b        5.05357
_cell_length_c        5.05357
_cell_angle_alpha    90.0000
_cell_angle_beta     90.0000
_cell_angle_gamma    90.0000
_cell_formula_units_Z 4
loop_
_atom_site_label
_atom_site_fract_x
_atom_site_fract_y
_atom_site_fract_z
_atom_site_occupancy
_atom_site_B_iso_or_equiv
pb      0.000   0.000   0.000    1.00000    1.000
_cell_measurement_wavelength    1.541874
_cell_measurement_radiation   'x-rays'
_exptl_crystal_density_diffrn    10.663000
loop_
_pd_peak_d_spacing
_pd_peak_intensity
     2.917680       1000.00
     2.526785        501.53
     1.786707        338.37
     1.523709        384.39
     1.458840        109.07
     1.263392         47.79
     1.159368        141.01
     1.130013        129.67
     1.031556        100.85
     0.972560        121.10
     0.893353         44.26
     0.854209        191.26
     0.842262        125.04
     0.799040        143.08
##############################################################################
###                            Comments                                    ###
##############################################################################
###   Diffraction pattern calculated by Match!. 
###   I/Ic calculated by Match!. 
##############################################################################


