##############################################################################
###               Crystal structure data exported by Match!                ###
##############################################################################
###                           Data published by:                           ###
###                                                                        ###
###               COD (Crystallography Open Database)
##############################################################################
data_9005027
_citation_journal_full    'European Journal of Mineralogy'
_citation_journal_volume  '2'
_citation_page_first  '63'
_citation_page_last   '77'
_citation_year  '1990'
_citation_title  'An X-ray study of the temperature dependence of the quartz structureSample: at T = 859 K'
loop_
_publ_author_name
  'Kihara K.'
_chemical_formula_sum  'O2 Si'
_chemical_name_mineral  'Quartz'
_symmetry_space_group_name_H-M 'P 62 2 2'
_space_group_IT_number 180
_space_group_crystal_system 'hexagonal'
loop_
_symmetry_equiv_pos_as_xyz
   'x, y, z'
   'x-y, x, z+0.33333'
   '-y, x-y, z+0.66667'
   '-x, -y, z'
   '-x+y, -x, z+0.33333'
   'y, -x+y, z+0.66667'
   'x-y, -y, -z'
   '-x, -x+y, -z+0.33333'
   'y, x, -z+0.66667'
   '-y, -x, -z+0.66667'
   '-x+y, y, -z'
   'x, x-y, -z+0.33333'
_cell_length_a        4.99730
_cell_length_b        4.99730
_cell_length_c        5.45720
_cell_angle_alpha    90.0000
_cell_angle_beta     90.0000
_cell_angle_gamma   120.0000
loop_
_atom_site_label
_atom_site_fract_x
_atom_site_fract_y
_atom_site_fract_z
_atom_site_occupancy
_atom_site_B_iso_or_equiv
si      0.500   0.000   0.000    1.00000    1.769
o      0.415   0.208   0.167    1.00000    4.266
_cell_measurement_wavelength    1.541874
_cell_measurement_radiation   'x-rays'
_cell_measurement_temperature    859.000000
_exptl_crystal_density_diffrn    2.536000
loop_
_pd_peak_d_spacing
_pd_peak_intensity
     4.327789        180.67
     3.390914       1000.00
     2.498650         37.47
     2.308142         20.04
     2.271839          1.94
     2.163894         34.68
     2.011530         26.33
     1.842753        147.73
     1.819067          0.33
     1.695457         10.40
     1.676954          4.51
     1.635750          0.88
     1.566876         59.27
     1.470622          2.43
     1.442596          8.70
     1.402964         31.08
     1.394689          9.15
     1.392426         56.88
     1.301177          5.25
     1.275327         15.93
     1.249325         15.93
     1.217820          0.61
     1.216312         16.38
     1.200313          4.38
     1.197431         17.42
     1.172291         25.32
     1.154071          0.80
     1.135920          0.37
     1.130305          0.17
     1.098705          9.17
     1.081947          7.02
     1.061290          0.25
     1.058304          7.86
     1.047714          9.39
     1.029835          7.53
##############################################################################
###                            Comments                                    ###
##############################################################################
###   Diffraction pattern calculated by Match!. 
###   I/Ic calculated by Match!. 
###   Space group has been derived from given symmetry operations. 
##############################################################################


