##############################################################################
###               Crystal structure data exported by Match!                ###
##############################################################################
###                           Data published by:                           ###
###                                                                        ###
###               COD (Crystallography Open Database)
##############################################################################
data_9007432
_citation_journal_full    'Acta Crystallographica'
_citation_journal_volume  '9(6)'
_citation_page_first  '515'
_citation_page_last   '520'
_citation_year  '1956'
_citation_title  '\"Uber die Verfeinerung der Kristallstrukturbestimmung einigerVertreter des Rutiltyps: TiO~2~, SnO~2~, GeO~2~ und MgF~2~'
loop_
_publ_author_name
  'Baur W. H.'
_chemical_formula_sum  'O2 Ti'
_chemical_name_mineral  'Rutile'
_symmetry_space_group_name_H-M 'P 42/m n m'
_space_group_IT_number 136
_space_group_crystal_system 'tetragonal'
loop_
_symmetry_equiv_pos_as_xyz
   'x, y, z'
   '-y+0.5, x+0.5, z+0.5'
   '-x, -y, z'
   'y+0.5, -x+0.5, z+0.5'
   'x+0.5, -y+0.5, -z+0.5'
   '-x+0.5, y+0.5, -z+0.5'
   'y, x, -z'
   '-y, -x, -z'
   '-x, -y, -z'
   'y+0.5, -x+0.5, -z+0.5'
   'x, y, -z'
   '-y+0.5, x+0.5, -z+0.5'
   '-x+0.5, y+0.5, z+0.5'
   'x+0.5, -y+0.5, z+0.5'
   '-y, -x, z'
   'y, x, z'
_cell_length_a        4.59400
_cell_length_b        4.59400
_cell_length_c        2.95900
_cell_angle_alpha    90.0000
_cell_angle_beta     90.0000
_cell_angle_gamma    90.0000
loop_
_atom_site_label
_atom_site_fract_x
_atom_site_fract_y
_atom_site_fract_z
_atom_site_occupancy
_atom_site_B_iso_or_equiv
ti      0.000   0.000   0.000    1.00000    0.700
o      0.306   0.306   0.000    1.00000    0.700
_cell_measurement_wavelength    1.541874
_cell_measurement_radiation   'x-rays'
_exptl_crystal_density_diffrn    4.248000
loop_
_pd_peak_d_spacing
_pd_peak_intensity
     3.248448       1000.00
     2.487639        441.59
     2.297000         67.40
     2.187516        180.06
     2.054499         66.53
     1.687601        533.88
     1.624224        156.16
     1.479500         73.75
     1.452750         73.27
     1.423826          5.92
     1.360004        184.46
     1.346429         89.87
     1.304061          9.37
     1.274146          1.99
     1.243819         19.08
     1.200593         10.88
     1.170264         37.04
     1.148500         24.82
     1.114209          9.12
     1.093758         60.67
     1.082816         33.65
     1.042734         58.38
     1.036578         43.54
     1.027250         26.15
     1.016869          0.45
##############################################################################
###                            Comments                                    ###
##############################################################################
###   Diffraction pattern calculated by Match!. 
###   I/Ic calculated by Match!. 
###   Space group has been derived from given symmetry operations. 
##############################################################################


