##############################################################################
###               Crystal structure data exported by Match!                ###
##############################################################################
###                           Data published by:                           ###
###                                                                        ###
###               COD (Crystallography Open Database)
##############################################################################
data_4124645
_citation_journal_full    'Journal of the American Chemical Society'
_citation_journal_volume  '111'
_citation_page_first  '2470'
_citation_page_last   '2474'
_citation_year  '1989'
_citation_title  'Detailed investigation of the lattice structure of zeolite ZSM-11 by acombination of solid-state NMR and synchroton x-ray diffraction'
loop_
_publ_author_name
  'Fyfe C.A.'
  'Strobl H.'
  'Gies H.'
  'Kokotailo G.T.'
  'Pasztor C.'
  'Cox D.E.'
_chemical_formula_sum  'O2 Si'
_chemical_name_common  'Silica'
_symmetry_space_group_name_H-M 'I -4 m 2'
_space_group_IT_number 119
_space_group_crystal_system 'tetragonal'
loop_
_symmetry_equiv_pos_as_xyz
   'x, y, z'
   'x+0.5, y+0.5, z+0.5'
   'y, -x, -z'
   'y+0.5, -x+0.5, -z+0.5'
   '-x, -y, z'
   '-x+0.5, -y+0.5, z+0.5'
   '-y, x, -z'
   '-y+0.5, x+0.5, -z+0.5'
   'y, x, -z'
   'y+0.5, x+0.5, -z+0.5'
   '-y, -x, -z'
   '-y+0.5, -x+0.5, -z+0.5'
   '-x, y, z'
   '-x+0.5, y+0.5, z+0.5'
   'x, -y, z'
   'x+0.5, -y+0.5, z+0.5'
_cell_length_a       20.06700
_cell_length_b       20.06700
_cell_length_c       13.41100
_cell_angle_alpha    90.0000
_cell_angle_beta     90.0000
_cell_angle_gamma    90.0000
_cell_formula_units_Z 96
loop_
_atom_site_label
_atom_site_fract_x
_atom_site_fract_y
_atom_site_fract_z
_atom_site_occupancy
_atom_site_B_iso_or_equiv
o      0.090   0.301   0.350    1.00000    1.000
si      0.077   0.077   0.000    1.00000    1.000
o      0.251   0.193   0.425    1.00000    1.000
o      0.087   0.000   0.028    1.00000    1.000
o      0.107   0.118   0.098    1.00000    1.000
si      0.121   0.186   0.145    1.00000    1.000
si      0.280   0.188   0.140    1.00000    1.000
si      0.305   0.077   -0.008    1.00000    1.000
si      0.194   0.194   0.500    1.00000    1.000
o      0.130   0.408   0.435    1.00000    1.000
o      0.000   0.396   0.387    1.00000    1.000
o      0.202   0.199   0.151    1.00000    1.000
si      0.076   0.382   0.359    1.00000    1.000
o      0.300   0.000   0.025    1.00000    1.000
o      0.301   0.119   0.089    1.00000    1.000
o      0.087   0.412   0.250    1.00000    1.000
o      0.093   0.186   0.255    1.00000    1.000
si      0.077   0.222   0.357    1.00000    1.000
o      0.309   0.191   0.250    1.00000    1.000
o      0.120   0.193   0.448    1.00000    1.000
o      0.000   0.209   0.388    1.00000    1.000
o      0.093   0.244   0.090    1.00000    1.000
_cell_measurement_wavelength    1.541874
_cell_measurement_radiation   'x-rays'
_exptl_crystal_density_diffrn    1.773000
loop_
_pd_peak_d_spacing
_pd_peak_intensity
    14.189511         13.47
    11.150156       1000.00
    10.033500        548.87
     7.458387         30.53
     7.094756          3.32
     6.705500         88.00
     6.345742          0.29
     6.062631          7.69
     5.985766        141.58
     5.575078         85.64
     5.140496         39.32
     5.016750         52.06
     4.873307          0.53
     4.729837         17.62
     4.609054         32.90
     4.575008          2.72
     4.487117          3.52
     4.363375         32.72
     4.016956          0.20
     4.001377          4.34
     3.935462          7.01
     3.865064         12.02
     3.844920        525.02
     3.729194          1.42
     3.716719        218.10
     3.590329         44.66
     3.547378          0.89
     3.485280         26.77
     3.441462          0.34
     3.394088         22.08
     3.352750         23.81
     3.344500         30.17
     3.292307          0.24
     3.262903          4.06
     3.203493          2.00
     3.179913         19.64
     3.172871          0.77
     3.135631          0.00
     3.061764         73.74
     3.051722          4.98
     3.031316          0.14
     2.992883          1.92
     2.986423         97.61
     2.964425          7.61
     2.919661          1.76
     2.868009          1.61
     2.862323         19.23
     2.837902          3.83
     2.803383          6.27
     2.787539          2.11
     2.782792          0.03
     2.735258          1.10
     2.699975          0.49
     2.685812          0.62
     2.658557          4.43
     2.654438          0.75
     2.634926          6.39
     2.613481         24.26
     2.570248          0.02
     2.569874          1.39
     2.566153          0.48
     2.552156         10.94
     2.523424          3.09
     2.508375         14.13
     2.489512         16.40
     2.486129          5.26
     2.452384          7.28
     2.447214          3.03
     2.436654          0.00
     2.433481          3.38
     2.416247          1.77
     2.413153         13.85
     2.401502         18.24
     2.367830          3.00
     2.364919          0.00
     2.349377          0.45
     2.349091          0.03
     2.346248          0.81
     2.332741          0.46
     2.313455          6.70
     2.304527          0.33
     2.287504          2.21
     2.243559          0.18
     2.235167          1.87
     2.230276          0.07
     2.230031          1.55
     2.227599          1.94
     2.216029          0.01
     2.207941          0.11
     2.203227          5.08
     2.199476          2.10
     2.181687          2.50
     2.176911          2.62
     2.174648          2.26
     2.166110          1.40
     2.148460          0.49
     2.141303          0.17
     2.131872          0.00
     2.127627          0.95
     2.115247          0.43
     2.108210          3.80
     2.104105          0.04
     2.100837          0.96
     2.081147          0.99
     2.079170         11.51
     2.071704          3.35
     2.041690          0.77
     2.037773          1.09
     2.027073          1.05
     2.020877          3.97
     2.017260          0.05
     2.014380          0.38
     2.008478         34.99
     2.006700         52.27
     2.000688          0.08
     1.997003          0.64
     1.995255          0.21
     1.974971          2.58
     1.969407          8.27
     1.967731          3.92
     1.958586          1.79
     1.956937          0.22
     1.949079          0.34
     1.943569          0.29
     1.940351          0.02
     1.932532          0.16
     1.922460          4.23
     1.922304          0.14
     1.920745         15.12
     1.914854          2.15
     1.907185          0.77
     1.902629          1.66
     1.891079          0.17
     1.888114          2.20
     1.874505         25.00
     1.873637          0.58
     1.871617          0.28
     1.869316          2.90
     1.864597          2.06
     1.863174          0.28
     1.858359          0.05
     1.855405          0.04
     1.854003          0.04
     1.848704          0.31
     1.841799          6.51
     1.837695          0.21
     1.827281          0.02
     1.824472          1.67
     1.823139          0.63
     1.816781          0.07
     1.811531          1.94
     1.807626          2.28
     1.795165          0.56
     1.788967          0.17
     1.782708          0.07
     1.778986          8.49
     1.773689          1.11
     1.766982          3.27
     1.765771         10.64
     1.759992          0.06
     1.755932          1.30
     1.753558          0.53
     1.742640          0.25
     1.739046          2.80
     1.734670          1.03
     1.728963          0.84
     1.721852          4.15
     1.720731          0.90
     1.714716          0.21
     1.714605          0.86
     1.713499          0.02
     1.704504          0.70
     1.703851          6.22
     1.702332          0.40
     1.700600          0.02
     1.697044          1.90
     1.690105          0.29
     1.689045          0.64
     1.685035          1.48
     1.676375          7.37
     1.672250          0.04
     1.668766         19.70
     1.666728          0.31
     1.666626          9.29
     1.665610          3.65
     1.664797          0.00
     1.660757          0.03
     1.656744          0.47
     1.653755          1.68
     1.653456          1.20
     1.649497          0.17
     1.646153          2.89
     1.634610          0.04
     1.631739          0.24
     1.631452          0.01
     1.628597          0.14
     1.624436          0.02
     1.622555          9.20
     1.622461          0.17
     1.620774          0.03
     1.613894          1.41
     1.613340          1.31
     1.612050          1.06
     1.610579          4.47
     1.601747          0.33
     1.601656          0.83
     1.600754          0.06
     1.597339          0.64
     1.592879          2.53
     1.590222          0.04
     1.589956          0.22
     1.586436          0.02
     1.583460          0.33
     1.580068          0.12
     1.576612          0.01
     1.573692          0.05
     1.573178          0.03
     1.570362          0.10
     1.567815          8.58
     1.566969          0.12
     1.562339          3.07
     1.561502          1.46
     1.558332          0.29
     1.543817          0.57
     1.543736          5.64
     1.542929          0.93
     1.542283          0.09
     1.539069          0.23
     1.536351          0.03
     1.535873          1.11
     1.534760          0.05
     1.533491          5.73
     1.530882          0.13
     1.525861          1.08
     1.525783          0.11
     1.525003          2.24
     1.518189          4.39
     1.515888          2.50
     1.515658          0.00
     1.508441          0.44
     1.507687          0.12
     1.507085          0.11
##############################################################################
###                            Comments                                    ###
##############################################################################
###   Diffraction pattern calculated by Match!. 
###   I/Ic calculated by Match!. 
###   Space group has been derived from given symmetry operations. 
##############################################################################


