##############################################################################
###               Crystal structure data exported by Match!                ###
##############################################################################
###                           Data published by:                           ###
###                                                                        ###
###               COD (Crystallography Open Database)
##############################################################################
data_4002433
_citation_journal_full    'Chemistry of Materials (1,1989-)'
_citation_journal_volume  '18'
_citation_page_first  '1464'
_citation_page_last   '1469'
_citation_year  '2006'
_citation_title  'Magic silica clusters as nanoscale building units forsuper-(tris)tetrahedral materials'
loop_
_publ_author_name
  'Wojdel J.C.'
  'Zwijnenburg M.A.'
  'Bromley S.T.'
_chemical_formula_sum  'O2 Si'
_chemical_name_common  'Silica'
_symmetry_space_group_name_H-M 'I m m 2'
_space_group_IT_number 44
_space_group_crystal_system 'orthorhombic'
loop_
_symmetry_equiv_pos_as_xyz
   'x, y, z'
   'x+0.5, y+0.5, z+0.5'
   '-x, -y, z'
   '-x+0.5, -y+0.5, z+0.5'
   '-x, y, z'
   '-x+0.5, y+0.5, z+0.5'
   'x, -y, z'
   'x+0.5, -y+0.5, z+0.5'
_cell_length_a       17.81300
_cell_length_b       17.67500
_cell_length_c       17.83400
_cell_angle_alpha    90.0000
_cell_angle_beta     90.0000
_cell_angle_gamma    90.0000
_cell_formula_units_Z 32
loop_
_atom_site_label
_atom_site_fract_x
_atom_site_fract_y
_atom_site_fract_z
_atom_site_occupancy
_atom_site_B_iso_or_equiv
o      0.580   0.000   0.332    1.00000    1.000
o      0.422   0.345   0.184    1.00000    1.000
o      0.573   0.149   0.323    1.00000    1.000
si      0.577   0.077   0.380    1.00000    1.000
si      0.802   0.000   0.540    1.00000    1.000
o      0.648   0.073   0.437    1.00000    1.000
o      0.500   0.414   0.079    1.00000    1.000
si      0.500   0.301   0.215    1.00000    1.000
o      0.500   0.080   0.428    1.00000    1.000
o      0.285   0.000   0.559    1.00000    1.000
si      0.693   0.000   0.467    1.00000    1.000
o      0.785   0.000   0.448    1.00000    1.000
o      0.000   0.708   0.699    1.00000    1.000
si      0.418   0.417   0.127    1.00000    1.000
o      0.415   0.500   0.175    1.00000    1.000
o      0.500   0.286   0.308    1.00000    1.000
o      0.846   0.073   0.570    1.00000    1.000
si      0.500   0.193   0.292    1.00000    1.000
_cell_measurement_wavelength    1.541874
_cell_measurement_radiation   'x-rays'
_exptl_crystal_density_diffrn    0.568000
loop_
_pd_peak_d_spacing
_pd_peak_intensity
    12.603111        982.81
    12.553949       1000.00
    12.546618          0.62
     8.917000          0.10
     8.906500         68.36
     8.837500         67.81
     7.268335        311.53
     7.264066          0.66
     7.235827          0.63
     6.301555         82.26
     6.276975         87.04
     6.273309         33.37
     5.638941         11.23
     5.634517          8.36
     5.633628         17.12
     5.628555          0.22
     5.594293         17.33
     5.593644          0.09
     5.130790          0.21
     4.761661         51.41
     4.759660          0.44
     4.753680         53.05
     4.750496         19.69
     4.738493          0.47
     4.737310         20.39
     4.458500          3.62
     4.453250          0.22
     4.418750          0.24
     4.201130          0.06
     4.201037         10.01
     4.197011          1.63
     4.184650         10.78
     4.182206          0.01
     4.169883          1.53
     3.986863          5.34
     3.984046          1.79
     3.980616          4.45
     3.976878          7.38
     3.959285          1.77
     3.958364          7.87
     3.794165          0.61
     3.787437          0.82
     3.786430          1.55
     3.634168         15.25
     3.632033          9.10
     3.617913          9.80
     3.497376          1.07
     3.496320          1.23
     3.494894          4.73
     3.493787          4.49
     3.493575          0.46
     3.492364          0.00
     3.486489          5.01
     3.484134          0.44
     3.478091          4.52
     3.476843          0.31
     3.467536          0.37
     3.467382          0.00
     3.254536          0.63
     3.251985          0.25
     3.251855          8.30
     3.248928         11.04
     3.231658          7.35
     3.231282         11.44
     3.150778          4.74
     3.138487          4.74
     3.136654          3.03
     3.057551          1.17
     3.055856          1.85
     3.051216          1.01
     3.050268          0.02
     3.049532          0.59
     3.048586          0.05
     3.044640          0.86
     3.038384          1.38
     3.037449          0.00
     2.972333          0.00
     2.968833          0.03
     2.967801          0.05
     2.960083          0.07
     2.958929          0.03
     2.945833          0.00
     2.892279          0.09
     2.889503          2.46
     2.889144          0.08
     2.888073          1.08
     2.886528          2.26
     2.884657          0.02
     2.875657          1.38
     2.875216          0.00
     2.868516          0.01
     2.819470          0.75
     2.817258          0.92
     2.816814          0.99
     2.814278          1.93
     2.797147          1.20
     2.796822          1.85
     2.750019          0.41
     2.749325          4.61
     2.742345          0.40
     2.740511          2.13
     2.737087          5.24
     2.735947          2.09
     2.686083          0.01
     2.683786          7.39
     2.668635          7.90
     2.628357          1.21
     2.626541         14.35
     2.624776          0.86
     2.622432          0.46
     2.611013         13.95
     2.610485          0.42
     2.565395          0.03
     2.522049          0.80
     2.521653          0.67
     2.520622          6.80
     2.519198          0.20
     2.518744          0.00
     2.517069          0.03
     2.516537          0.11
     2.514316          0.09
     2.513374          0.02
     2.510790          6.78
     2.510262          0.20
     2.509851          0.03
     2.509324          0.00
     2.500066          0.22
     2.500008          0.00
     2.472234          0.11
     2.471114          6.42
     2.466283          0.13
     2.464283          1.41
     2.457803          5.39
     2.456922          1.43
     2.426282          0.65
     2.425224          0.73
     2.423956          1.90
     2.423902          2.21
     2.422778          2.04
     2.422689          3.33
     2.421355          0.06
     2.416601          2.02
     2.415503          0.53
     2.411942          0.10
     2.407190          2.12
     2.407035          3.43
     2.380830          0.09
     2.379830          0.75
     2.376840          0.11
     2.375248          0.55
     2.369247          0.56
     2.368655          0.61
     2.341290          0.07
     2.339389          0.12
     2.338442          0.04
     2.336122          0.00
     2.324044          0.07
     2.323625          0.00
     2.263514          4.07
     2.263214          2.01
     2.263041          0.00
     2.261783          1.65
     2.261496          1.11
     2.259855          0.15
     2.256670          3.59
     2.255180          0.05
     2.253087          0.08
     2.252069          0.05
     2.248748          1.10
     2.248537          0.11
     2.229250          1.77
     2.226625          0.29
     2.209375          0.39
     2.194874          0.00
     2.194286          0.55
     2.192994          4.91
     2.192407          2.01
     2.190382          0.57
     2.189447          0.04
     2.188513          1.32
     2.187117          0.04
     2.186768          0.02
     2.180595          5.04
     2.180018          1.34
     2.176189          2.22
     2.162540          0.00
     2.161541          0.00
     2.160293          0.46
     2.159148          2.87
     2.157510          0.00
     2.156766          0.05
     2.151826          0.03
     2.144528          0.44
     2.144382          3.00
     2.128204          0.15
     2.127811          0.09
     2.124405          0.11
     2.123445          0.36
     2.121415          0.05
     2.120848          0.39
     2.100565          3.15
     2.100518          2.16
     2.098506          0.15
     2.092325          2.81
     2.091103          0.01
     2.084941          0.10
     2.072610          0.84
     2.072335          0.46
     2.071543          5.36
     2.070853          0.66
     2.070796          0.55
     2.070359          0.10
     2.069274          0.02
     2.068826          0.10
     2.068781          0.58
     2.067514          0.13
     2.066860          0.27
     2.065258          0.00
     2.060866          4.97
     2.060574          0.02
     2.060347          0.27
     2.060055          0.01
     2.057114          0.50
     2.056855          0.67
     2.043587          0.55
     2.036874          0.85
     2.035872          0.01
     2.017606          0.29
     2.016875          1.16
     2.013359          0.17
     2.011998          0.09
     2.007817          1.00
     2.007186          0.06
     1.993432          0.44
     1.992023          0.75
     1.990308          0.38
     1.988439          0.00
     1.979642          0.62
     1.979182          0.00
     1.969407          0.58
     1.969219          0.60
     1.967231          0.00
     1.967145          0.13
     1.966929          0.05
     1.965680          0.55
     1.955442          0.65
     1.952088          0.12
     1.952061          0.07
     1.944576          0.05
     1.943268          0.13
     1.942400          0.04
     1.940771          1.94
     1.932482          0.18
     1.932161          2.23
     1.922782          1.13
     1.922256          1.26
     1.921939          4.15
     1.921597          2.22
     1.920755          0.46
     1.920152          1.27
     1.917404          0.12
     1.917116          0.07
     1.915830          4.59
     1.915205          0.03
     1.914580          0.01
     1.913238          1.58
     1.912330          0.04
     1.906903          0.41
     1.906826          1.13
     1.897083          0.40
     1.893719          0.46
     1.893215          0.40
     1.879647          0.86
     1.879064          0.01
     1.878172          0.66
     1.878105          0.11
     1.877876          0.82
     1.876243          0.21
     1.876185          0.00
     1.875656          0.66
     1.875143          0.08
     1.874777          0.23
     1.873971          0.42
     1.873605          0.43
     1.870300          0.73
     1.870081          0.61
     1.867880          0.19
     1.867300          0.50
     1.864764          0.67
     1.864548          0.04
     1.838522          0.06
     1.837755          0.10
     1.837019          0.03
     1.836865          0.01
     1.836720          0.01
     1.835985          0.04
     1.832898          0.01
     1.831985          0.00
     1.830628          0.01
     1.830014          0.01
     1.825189          0.03
     1.825076          0.01
     1.817084          0.09
     1.816017          0.36
     1.808957          0.28
     1.800993          0.00
     1.800444          0.02
     1.799587          0.12
##############################################################################
###                            Comments                                    ###
##############################################################################
###   Diffraction pattern calculated by Match!. 
###   I/Ic calculated by Match!. 
###   Space group has been derived from given symmetry operations. 
##############################################################################


