##############################################################################
###               Crystal structure data exported by Match!                ###
##############################################################################
###                           Data published by:                           ###
###                                                                        ###
###               COD (Crystallography Open Database)
##############################################################################
data_4002383
_citation_journal_full    'Chemistry of Materials (1,1989-)'
_citation_journal_volume  '18'
_citation_page_first  '3889'
_citation_page_last   '3897'
_citation_year  '2007'
_citation_title  'High- and low-temperature crystal and magnetic structure of epsilon-Fe2O3 and their correlation to its magnetic properties'
loop_
_publ_author_name
  'Gich M.'
  'Frontera C.'
  'Ritter C.'
  'Roig A.'
  'Nogues J.'
  'Taboada E.'
  'Molins E.'
  'Macedo W.A.A.'
  'Ardisson J.D.'
  'Hardy V.'
  'Rechenberg H.R.'
  'Sort J.'
  'Skumryev V.'
_chemical_formula_sum  'Fe2 O3'
_chemical_name_mineral  'Hematite'
_chemical_name_common  'Iron(III) oxide'
_symmetry_space_group_name_H-M 'P n a 21'
_space_group_IT_number 33
_space_group_crystal_system 'orthorhombic'
loop_
_symmetry_equiv_pos_as_xyz
   'x, y, z'
   '-x, -y, z+0.5'
   '-x+0.5, y+0.5, z+0.5'
   'x+0.5, -y+0.5, z'
_cell_length_a        5.08500
_cell_length_b        8.77400
_cell_length_c        9.46800
_cell_angle_alpha    90.0000
_cell_angle_beta     90.0000
_cell_angle_gamma    90.0000
_cell_formula_units_Z 8
loop_
_atom_site_label
_atom_site_fract_x
_atom_site_fract_y
_atom_site_fract_z
_atom_site_occupancy
_atom_site_B_iso_or_equiv
o      0.858   0.157   0.668    1.00000    1.000
fe      0.687   0.028   0.794    1.00000    1.000
o      0.978   0.331   0.429    1.00000    1.000
o      0.523   0.161   0.926    1.00000    1.000
fe      0.185   0.153   0.000    1.00000    1.000
o      0.646   0.994   0.187    1.00000    1.000
fe      0.810   0.159   0.308    1.00000    1.000
o      0.159   0.162   0.200    1.00000    1.000
o      0.512   0.487   0.449    1.00000    1.000
fe      0.193   0.151   0.582    1.00000    1.000
_cell_measurement_wavelength    1.541874
_cell_measurement_radiation   'x-rays'
_exptl_crystal_density_diffrn    5.022000
loop_
_pd_peak_d_spacing
_pd_peak_intensity
     6.435531         72.74
     4.734000         20.48
     4.399536         17.32
     4.387000          1.10
     3.989827         15.72
     3.321666         49.11
     3.222703        101.69
     3.217765        135.31
     3.134369         26.42
     2.969725        336.17
     2.794385         24.17
     2.719090       1000.00
     2.564423        154.14
     2.542500        160.78
     2.535241         70.42
     2.455506        107.24
     2.448965        299.45
     2.442037         23.59
     2.367000         57.77
     2.364649          5.11
     2.287955         84.95
     2.239896         35.77
     2.234928        110.81
     2.199768          0.79
     2.193500         46.27
     2.170291        130.86
     2.145177          0.04
     2.142696          2.69
     2.084467          0.90
     2.083129          3.73
     2.014101         31.51
     1.994913         38.51
     1.990235         53.84
     1.979931         32.88
     1.976497         65.07
     1.970019          1.65
     1.931367         86.82
     1.927648         12.99
     1.918808          8.89
     1.880577          5.99
     1.853336         45.66
     1.850983         22.83
     1.804650         25.81
     1.778285          0.29
     1.739334         11.67
     1.732446        111.40
     1.730144         56.17
     1.725415         22.99
     1.699631          7.02
     1.697820          8.04
     1.664230          5.55
     1.660833         16.04
     1.658805          0.31
     1.645063          2.12
     1.639559          0.07
     1.639101          0.24
     1.635855          2.12
     1.633917          1.75
     1.611351          0.14
     1.608883          4.25
     1.589520          8.15
     1.581090          1.13
     1.578000         19.47
     1.570038         36.59
     1.567185         25.65
     1.565480          1.54
     1.559495         11.14
     1.533934          9.90
     1.533669        108.25
     1.518678         96.25
     1.517126        284.52
     1.499660         26.38
     1.496427         12.69
     1.490563          4.48
     1.485347          1.11
     1.484863          4.03
     1.472096          6.94
     1.469743         14.46
     1.468337          2.71
     1.466512        184.15
     1.462333         81.52
     1.449231         23.04
     1.444215          0.26
     1.435119          0.05
     1.427701         15.12
     1.425337         27.35
     1.413616         83.83
     1.405375         14.20
     1.400836          1.20
     1.397192          0.37
     1.390144          2.02
     1.381363         68.07
     1.379611          3.12
     1.361407          0.60
     1.359545          3.65
     1.358432          0.03
     1.347801          5.13
     1.347260          0.95
     1.341221          1.39
     1.340757          8.76
     1.339689         11.97
     1.336781         20.18
     1.329942          0.26
     1.327963          0.34
     1.325372          4.57
     1.314754          0.26
     1.313245         46.87
     1.292853         26.34
     1.290431          2.90
     1.287106          1.69
     1.283838          0.19
     1.282212          1.23
     1.280967          0.73
     1.271250          0.07
     1.267621         15.10
     1.259944         19.03
     1.258113          4.41
     1.256410          9.65
     1.252698          7.90
     1.250060          0.73
     1.248618          6.42
     1.247756          0.96
     1.247151          0.19
     1.246635         18.59
     1.244065          5.63
     1.242587          0.77
     1.242160          1.68
     1.234379          5.77
     1.232852          3.15
     1.227753          3.92
     1.227644          0.05
     1.224483          3.03
     1.221018          0.03
     1.219139          0.35
     1.218790          0.66
     1.217001          2.65
     1.215906         30.12
     1.213652          3.92
     1.210990          1.62
     1.209156          0.17
     1.208425          9.64
     1.207070          3.95
     1.194113          0.00
     1.193359          1.21
     1.183500          8.05
     1.183206         13.64
     1.182324          0.11
     1.180618          1.15
     1.179182          3.20
     1.178676          1.57
     1.176284          4.20
     1.168675          0.07
     1.166909          0.14
     1.165875          2.34
     1.164918          0.21
     1.159458          8.60
     1.157136          0.03
     1.152193          4.50
     1.148344          0.97
     1.145086          2.40
     1.143977          0.57
     1.143314          0.07
     1.142871          2.49
     1.142650          1.91
     1.138763          4.19
     1.137238          0.41
     1.135502          3.47
     1.132050          0.05
     1.128527          2.20
     1.124235          1.52
     1.122870          0.27
     1.119948          0.07
     1.117464         21.82
     1.116905          1.58
     1.116392          0.85
     1.114850         19.71
     1.110934          1.31
     1.107222          1.36
     1.105518          0.04
     1.099884          0.02
     1.099728          3.60
     1.096750          0.37
     1.094491          6.16
     1.093814          0.19
     1.093638          0.03
     1.092537          0.11
     1.085145          0.08
     1.083825          0.42
     1.082323          1.34
     1.078126          0.16
     1.074234         11.74
     1.072952          0.55
     1.072588          4.09
     1.072405          0.07
     1.072097          0.00
     1.071348          0.02
     1.071276         22.90
     1.068451          0.42
     1.065377          8.71
     1.065289          2.13
     1.065019          4.77
     1.059048          0.54
     1.055462         39.19
     1.053382         27.10
     1.049631          1.09
     1.049495          1.48
     1.048777          6.54
     1.048266          1.37
     1.047907          0.14
     1.045887          2.07
     1.045619         46.61
     1.045195          2.59
     1.044790          0.06
     1.044519          3.96
     1.042233          3.35
     1.041565          1.59
     1.038618          4.63
     1.029490          0.23
     1.027799         23.42
     1.026180          0.38
     1.025064          0.03
     1.023792         16.45
     1.023458          0.03
     1.023156          0.51
     1.021954          0.13
     1.020379          1.73
     1.015511          1.72
     1.015125          5.24
     1.010236          1.09
     1.007806          9.12
     1.007306          0.02
     1.007050          0.21
##############################################################################
###                            Comments                                    ###
##############################################################################
###   Diffraction pattern calculated by Match!. 
###   I/Ic calculated by Match!. 
###   Space group has been derived from given symmetry operations. 
##############################################################################


