##############################################################################
###               Crystal structure data exported by Match!                ###
##############################################################################
###                           Data published by:                           ###
###                                                                        ###
###               COD (Crystallography Open Database)
##############################################################################
data_9007486
_citation_journal_full    'Acta Crystallographica'
_citation_journal_volume  '19'
_citation_page_first  '287'
_citation_page_last   '289'
_citation_year  '1965'
_citation_title  'A three-dimensional refinement of the structure of crocoite, PbCrO4'
loop_
_publ_author_name
  'Quareni S.'
  'De Pieri R.'
_chemical_formula_sum  'Cr O4 Pb'
_chemical_name_mineral  'Crocoite'
_symmetry_space_group_name_H-M 'P 1 21/n 1'
_space_group_IT_number 14
_space_group_crystal_system 'monoclinic'
loop_
_symmetry_equiv_pos_as_xyz
   'x, y, z'
   '-x+0.5, y+0.5, -z+0.5'
   '-x, -y, -z'
   'x+0.5, -y+0.5, z+0.5'
_cell_length_a        7.12000
_cell_length_b        7.43000
_cell_length_c        6.79000
_cell_angle_alpha    90.0000
_cell_angle_beta    102.4200
_cell_angle_gamma    90.0000
loop_
_atom_site_label
_atom_site_fract_x
_atom_site_fract_y
_atom_site_fract_z
_atom_site_occupancy
_atom_site_B_iso_or_equiv
pb      0.222   0.145   0.397    1.00000    1.000
cr      0.201   0.165   0.880    1.00000    1.000
o      0.035   0.099   0.694    1.00000    1.000
o      0.125   0.346   0.987    1.00000    1.000
o      0.253   0.498   0.454    1.00000    1.000
o      0.389   0.217   0.781    1.00000    1.000
_cell_measurement_wavelength    1.541874
_cell_measurement_radiation   'x-rays'
_exptl_crystal_density_diffrn    6.120000
loop_
_pd_peak_d_spacing
_pd_peak_intensity
     5.415646        108.19
     5.076919         66.13
     4.947321        280.28
     4.376461        300.29
     4.353840        127.01
     3.756419        129.25
     3.715000         72.50
     3.476686        575.16
     3.315548         35.94
     3.276662       1000.00
     3.241029         70.99
     3.148994        116.84
     3.087107         73.83
     3.063495          0.01
     3.027767        605.05
     3.000055        280.66
     2.826040          0.13
     2.707823        163.36
     2.651431         18.67
     2.595665        149.07
     2.544133        188.46
     2.538460         26.25
     2.505705         17.60
     2.473660          0.04
     2.458480         43.72
     2.351154         20.27
     2.333090          8.54
     2.320123        136.82
     2.255385        146.01
     2.252317         14.19
     2.250895        127.26
     2.241600        118.88
     2.220761          0.18
     2.212631         27.13
     2.188231          4.81
     2.176920          0.19
     2.154212          3.51
     2.152739         33.29
     2.118603          7.49
     2.089098        252.84
     2.054664         52.33
     2.044427         40.22
     2.017178         11.41
     2.001806          0.04
     2.000625         95.70
     1.986739         38.97
     1.986706          0.94
     1.984200         18.46
     1.980338         16.65
     1.976340        221.06
     1.966454        151.78
     1.925103          2.69
     1.919308          7.10
     1.899563         98.96
     1.878209          2.62
     1.866112         31.91
     1.857500         70.01
     1.846357        183.60
     1.845547        138.47
     1.827534         24.18
     1.814013         62.37
     1.805215         36.87
     1.797992          2.22
     1.794571         55.55
     1.788650          2.47
     1.757024         14.84
     1.754182          0.40
     1.751945          1.16
     1.738343         37.54
     1.729120         22.22
     1.708508         26.42
     1.705163         16.54
     1.696965         65.09
     1.692634         50.41
     1.692306         33.64
     1.687412         46.06
     1.665735          0.23
     1.663208          8.51
     1.657774         41.70
     1.654411         16.95
     1.654365         18.28
     1.649107          0.37
     1.639629         21.44
     1.638331         61.39
     1.635077         13.66
     1.629425          0.13
     1.623671          0.78
     1.620515          5.31
     1.617990         18.23
     1.616224          5.14
     1.613391         57.75
     1.603736          0.10
     1.601107         44.92
     1.592196          0.20
     1.581330          1.27
     1.574497          0.42
     1.570291          8.35
     1.563459          0.30
     1.554248          3.93
     1.550729         32.94
     1.549731          6.56
     1.543592         55.75
     1.543554          6.76
     1.542779          0.20
     1.531747         24.46
     1.513884          5.75
     1.507580          1.10
     1.504538          0.04
     1.500028          3.29
     1.480576         23.38
     1.468936         31.98
     1.458820          0.95
     1.457520          1.22
     1.453186          0.56
     1.451280         10.88
     1.450036          4.69
     1.449467         17.56
     1.444310         29.53
     1.433032         21.99
     1.432666         29.52
     1.424363          6.47
     1.423979          0.39
     1.422843          2.25
     1.422302         74.83
     1.422045          5.86
     1.419746         24.80
     1.419737         60.13
     1.419153         11.26
     1.413020          1.41
     1.406343         16.02
     1.405230          5.29
     1.399912         32.60
     1.399884          1.38
     1.399559         16.89
     1.398953         14.22
     1.398526         18.96
     1.393953         28.71
     1.385104         38.65
     1.385068          3.62
     1.377897         18.62
     1.377638          4.55
     1.369913          1.49
     1.367172          2.17
     1.366937         19.87
     1.366419         13.93
     1.361646          0.14
     1.361240          2.15
     1.357578          0.42
     1.356841         14.55
     1.356032         59.72
     1.353912          4.96
     1.353515          0.75
     1.351792          0.11
     1.343508          3.90
     1.335469         17.33
     1.331978         40.67
     1.329647          0.03
     1.325715          1.96
     1.317495         10.00
     1.316485          1.81
     1.311019         10.78
     1.309493          0.00
     1.307552          3.09
     1.305815         14.29
     1.305584          8.30
     1.305565          0.90
     1.304985         46.84
     1.302727         32.98
     1.302411         18.75
     1.297832          6.21
     1.294570         19.20
     1.291075          3.45
     1.289816         48.35
     1.286104          2.65
     1.284397          0.42
     1.275403          4.81
     1.275106          0.02
     1.272067          1.00
     1.269230         15.94
     1.267024          1.26
     1.259434          0.98
     1.257018          7.88
     1.256680          4.19
     1.256141         21.67
     1.254043          0.00
     1.252873         10.27
     1.252853         17.80
     1.252140          1.92
     1.250974          0.01
     1.249016          0.09
     1.240126          0.73
     1.238333         14.43
     1.236830         23.83
     1.236554         16.48
     1.236295          0.04
     1.234479          5.76
     1.233218          0.86
     1.231928          1.18
     1.231330          5.12
     1.229240         12.72
     1.227318         43.53
     1.225664          8.29
     1.219151         14.52
     1.218067          0.33
     1.217289          6.26
     1.214667          4.25
     1.212605          0.69
     1.212590         29.87
     1.211954          3.84
     1.208892          0.17
     1.208868          0.41
     1.207177          2.63
     1.206294          0.03
     1.204092          5.89
     1.191092          2.38
     1.190462          3.98
     1.189965          4.45
     1.188174          0.08
     1.187987          4.54
     1.185362         10.50
     1.184720         12.96
     1.183882          1.89
     1.178967          5.87
     1.178503          8.28
     1.177678         10.78
     1.175577         18.78
     1.172101          2.06
     1.170843          4.37
     1.169605          4.38
     1.169147         12.73
     1.166880         28.60
     1.166545         21.86
     1.163317          1.09
     1.161133          1.43
     1.160061          3.01
     1.158895          3.10
     1.158693          0.59
     1.158484          2.81
     1.155096          0.01
     1.147290          0.71
     1.145056          8.43
     1.145051         19.95
     1.143612          7.33
     1.141969          0.05
     1.140192          3.03
     1.136814         12.90
     1.135011          9.67
     1.133886          4.31
     1.130521          0.19
     1.130109          1.26
     1.129541         15.68
     1.129526          0.85
     1.128414          5.86
     1.127986          0.61
     1.127692          8.93
     1.126158          7.75
     1.125448         15.61
     1.120800          2.07
     1.120669          0.62
     1.118797          2.67
     1.118420          2.04
     1.117966          0.26
     1.117952          7.86
     1.116962          5.30
     1.114850         11.37
     1.113244          1.97
     1.112754          4.80
     1.110712          9.20
     1.110381         21.79
     1.106523          7.46
     1.106320          0.55
     1.106315          0.11
     1.105183          6.12
     1.101078         15.46
     1.100966          0.24
     1.096048          0.14
     1.095654          0.29
     1.094115          2.32
     1.093155          9.43
     1.092221          9.81
     1.090174          0.00
     1.088603          0.00
     1.088460         12.41
     1.086046          0.19
     1.084978          4.82
     1.083129          3.96
     1.082241         11.42
     1.081446          0.53
     1.080921         21.17
     1.080343          8.82
     1.079969         27.12
     1.079345          0.06
     1.077273          2.96
     1.077106          1.99
     1.076965          1.11
     1.076370          0.62
     1.075606         12.87
     1.071801          2.94
     1.071103          9.41
     1.070113          6.17
     1.069426         11.01
     1.069210          0.71
     1.068482          6.88
     1.068260         12.07
     1.068123          0.20
     1.066125          8.66
     1.063859          9.03
     1.063256          0.28
     1.062012          0.20
     1.060600          2.77
     1.059447          0.02
     1.059301          0.84
     1.057250          1.07
     1.056588         13.40
     1.052534         16.89
     1.051416          2.44
     1.050907          4.79
     1.049668         12.23
     1.049665          2.36
     1.049274          0.78
     1.048636         22.52
     1.048086          9.58
     1.046706          6.77
     1.046283          7.81
     1.044549          2.51
     1.041611          0.05
     1.039835          0.16
     1.039352          0.65
     1.039336         13.02
     1.038268          5.50
     1.034650          0.32
     1.032861          1.01
     1.031226          0.09
     1.029314          0.18
     1.029036          3.73
     1.028132         14.17
     1.027900          6.62
     1.027332          6.66
     1.026311         17.36
     1.025009          7.16
     1.024618          0.22
     1.022213          0.00
     1.021165          6.32
     1.017650          3.41
     1.016872          0.03
     1.016602          0.06
     1.016485          5.14
     1.016150          0.16
     1.015384          0.00
     1.015172          0.36
     1.014878          1.21
     1.013210          0.54
     1.013042         10.21
     1.010890          1.53
     1.009846         17.91
     1.009256          2.01
     1.008589          5.96
     1.008001          0.07
     1.007481          0.80
     1.006908          0.33
##############################################################################
###                            Comments                                    ###
##############################################################################
###   Diffraction pattern calculated by Match!. 
###   I/Ic calculated by Match!. 
##############################################################################


