##############################################################################
###               Crystal structure data exported by Match!                ###
##############################################################################
###                           Data published by:                           ###
###                                                                        ###
###               COD (Crystallography Open Database)
##############################################################################
data_1010980
_citation_journal_full    'Zeitschrift fuer Kristallographie, Kristallgeometrie, Kristallphysik, Kristallchemie (-144,1977)'
_citation_journal_volume  '102'
_citation_page_first  '1'
_citation_page_last   '12'
_citation_year  '1940'
_citation_title  'Die Struktur des Libethenites Cu2 (O H) (P O4)'
loop_
_publ_author_name
  'Heritsch H'
_chemical_formula_sum  'Cu2 H O5 P'
_chemical_name_mineral  'Libethenite'
_chemical_name_common  'Copper phosphate(V) hydroxide'
_symmetry_space_group_name_H-M 'P n n m'
_space_group_IT_number 58
_space_group_crystal_system 'orthorhombic'
loop_
_symmetry_equiv_pos_as_xyz
   'x, y, z'
   '-x, -y, z'
   'x+0.5, -y+0.5, -z+0.5'
   '-x+0.5, y+0.5, -z+0.5'
   '-x, -y, -z'
   'x, y, -z'
   '-x+0.5, y+0.5, z+0.5'
   'x+0.5, -y+0.5, z+0.5'
_cell_length_a        8.43000
_cell_length_b        8.08000
_cell_length_c        5.90000
_cell_angle_alpha    90.0000
_cell_angle_beta     90.0000
_cell_angle_gamma    90.0000
_cell_formula_units_Z 4
loop_
_atom_site_label
_atom_site_fract_x
_atom_site_fract_y
_atom_site_fract_z
_atom_site_occupancy
_atom_site_B_iso_or_equiv
o      0.116   -0.139   0.000    1.00000    1.000
o      0.078   -0.158   0.500    1.00000    1.000
o      0.125   0.380   0.000    1.00000    1.000
o      0.236   0.139   0.250    1.00000    1.000
p      0.244   0.252   0.000    1.00000    1.000
cu      0.000   0.000   0.250    1.00000    1.000
cu      -0.122   0.367   0.000    1.00000    1.000
h      -1.000   -1.000   -1.000    0.50000    1.000
_cell_measurement_wavelength    1.541874
_cell_measurement_radiation   'x-rays'
_exptl_crystal_density_diffrn    3.938000
_exptl_crystal_density_meas      3.970000
loop_
_pd_peak_d_spacing
_pd_peak_intensity
     5.833233        873.32
     4.833738       1000.00
     4.764904        839.82
     4.215000         23.42
     4.148123          5.29
     4.040000         17.38
     3.737079        460.69
     3.643231        321.27
     3.157056          4.28
     3.099862          0.17
     2.950000         86.80
     2.916616        734.97
     2.654080        518.74
     2.632506        978.43
     2.614592        240.35
     2.565572        388.61
     2.536959        243.77
     2.450116        204.96
     2.420454        263.95
     2.416869        114.14
     2.382452        455.89
     2.352758        215.56
     2.315502        306.19
     2.306860         10.80
     2.292652         12.34
     2.269560         48.35
     2.148474          5.43
     2.118244          3.74
     2.107500          6.64
     2.074061        115.78
     2.039274         22.49
     2.020000         15.81
     1.973068         36.63
     1.964391          2.52
     1.944411         29.01
     1.935880         69.97
     1.927391         98.87
     1.915238         66.84
     1.910878         57.91
     1.868539         36.11
     1.863801        119.20
     1.863600          0.01
     1.846709          0.38
     1.821616         51.34
     1.817212         60.76
     1.798811         56.68
     1.781340          5.97
     1.740545          9.88
     1.740381          0.51
     1.730615          0.10
     1.714845        354.66
     1.677482          4.66
     1.666705        152.12
     1.659764          0.56
     1.650452        120.40
     1.640185          1.19
     1.635054          1.48
     1.630600         54.10
     1.623478        256.02
     1.621109         34.39
     1.611246         45.64
     1.597746         59.85
     1.589434         85.15
     1.588301         41.92
     1.587102         93.90
     1.580258         65.15
     1.580135         61.52
     1.578528        124.69
     1.560839         50.80
     1.558594         11.40
     1.555943          1.17
     1.549931        296.38
     1.532619         73.48
     1.508904         39.59
     1.504505          0.12
     1.496611          1.33
     1.486281          0.75
     1.475000        189.15
     1.461854          0.02
     1.458308        191.93
     1.446528          0.08
     1.440352         26.85
     1.433512          0.84
     1.429992         22.39
     1.429089          5.73
     1.415704          0.98
     1.415616         28.73
     1.405000          0.20
     1.400867         10.48
     1.397666         13.80
     1.392217          3.11
     1.389838         35.47
     1.388926          0.48
     1.385543          2.14
     1.384229         22.78
     1.382708          0.16
     1.376245         36.55
     1.371999         30.75
     1.367200         23.75
     1.362974          0.32
     1.354619          1.71
     1.347636          0.93
     1.346667         18.01
     1.343372         59.83
     1.336417          3.15
     1.329806         11.81
     1.327040         52.56
     1.316253         86.07
     1.307296         51.69
     1.297263          0.31
     1.294695         13.48
     1.294380          0.21
     1.289277         74.30
     1.286122         59.44
     1.282786         34.62
     1.282394          1.83
     1.280015         12.27
     1.278731         65.29
     1.268479         37.27
     1.268420         22.60
     1.265435         69.05
     1.264312         35.48
     1.264249         33.47
     1.259616         23.58
     1.253501         14.56
     1.253135         11.80
     1.253131         14.78
     1.248563          4.37
     1.245693          4.23
     1.242690          0.03
     1.236758          9.96
     1.235089         31.12
     1.225058         18.23
     1.220233          0.05
     1.218823          1.49
     1.214410          0.06
     1.212324          0.49
     1.210227          7.27
     1.208434          1.97
     1.197145          0.01
     1.195142          4.04
     1.191226          1.32
     1.191128          1.35
     1.189475          0.93
     1.185301          2.83
     1.179956          9.20
     1.179508          0.57
     1.176379          1.47
     1.176077          0.15
     1.175140          7.13
     1.171401          0.39
     1.168607          8.60
     1.167615          7.48
     1.167572          0.45
     1.166647          2.67
     1.157751          9.24
     1.156573          0.01
     1.156095          0.32
     1.154101          6.17
     1.153430         14.38
     1.147575          2.56
     1.146326         12.32
     1.144486          0.94
     1.143615          3.57
     1.141000          0.10
     1.134780          0.92
     1.132810          9.15
     1.132635          0.00
     1.132001          0.44
     1.131956          0.42
     1.125239          0.07
     1.122978          9.27
     1.122718          0.93
     1.122586          0.03
     1.114356          0.14
     1.113295          0.28
     1.104492         39.01
     1.102543          0.12
     1.101609          0.17
     1.100035          7.48
     1.099800         45.11
     1.099389         32.79
     1.096747          0.21
     1.093989          0.32
     1.093867         11.52
     1.087967          8.50
     1.084889         37.28
     1.081216         18.86
     1.080820          8.28
     1.080786         14.91
     1.080442         38.01
     1.078236         14.76
     1.074779          0.54
     1.074431          8.29
     1.074237         37.96
     1.074201          6.41
     1.072045         12.35
     1.070454          0.96
     1.067713         19.34
     1.066294         38.76
     1.060291          7.33
     1.059122         70.59
     1.054765         17.96
     1.053750         35.34
     1.052352          0.83
     1.052219          0.18
     1.050648         10.95
     1.050540          0.32
     1.046948          0.14
     1.044902          0.02
     1.043574          0.02
     1.041590          0.57
     1.037031        100.72
     1.035875          0.94
     1.034405          0.19
     1.033287          0.54
     1.030176          3.90
     1.028891          6.05
     1.027029          5.35
     1.026366          2.99
     1.021340          7.79
     1.019637          1.37
     1.018865         15.38
     1.018832          0.21
     1.017332          0.08
     1.015759          6.03
     1.012384          0.01
     1.011531          9.99
     1.010000         31.85
     1.009363         13.38
     1.008772          0.12
##############################################################################
###                            Comments                                    ###
##############################################################################
###   from Libethen, Neusohl, Czechia
###   Diffraction pattern calculated by Match!. 
###   I/Ic calculated by Match!. 
##############################################################################


