##############################################################################
###               Crystal structure data exported by Match!                ###
##############################################################################
###                           Data published by:                           ###
###                                                                        ###
###               COD (Crystallography Open Database)
##############################################################################
data_4124032
_citation_journal_full    'Journal of the American Chemical Society'
_citation_journal_volume  '126'
_citation_page_first  '9769'
_citation_page_last   '9775'
_citation_year  '2004'
_citation_title  'Chemical evaluation of hypothetical uninodal zeolites'
loop_
_publ_author_name
  'Foster M.D.'
  'Klinowski J.'
  'Friedrichs O.D.'
  'Paz F.A.A.'
  'Bell R.G.'
_chemical_formula_sum  'O2 Si'
_chemical_name_common  'Silica'
_symmetry_space_group_name_H-M 'P 63/m m c'
_space_group_IT_number 194
_space_group_crystal_system 'hexagonal'
loop_
_symmetry_equiv_pos_as_xyz
   'x, y, z'
   'x-y, x, z+0.5'
   '-y, x-y, z'
   '-x, -y, z+0.5'
   '-x+y, -x, z'
   'y, -x+y, z+0.5'
   'x-y, -y, -z'
   '-x, -x+y, -z'
   'y, x, -z'
   '-y, -x, -z+0.5'
   '-x+y, y, -z+0.5'
   'x, x-y, -z+0.5'
   '-x, -y, -z'
   '-x+y, -x, -z+0.5'
   'y, -x+y, -z'
   'x, y, -z+0.5'
   'x-y, x, -z'
   '-y, x-y, -z+0.5'
   '-x+y, y, z'
   'x, x-y, z'
   '-y, -x, z'
   'y, x, z+0.5'
   'x-y, -y, z+0.5'
   '-x, -x+y, z+0.5'
_cell_length_a       10.00243
_cell_length_b       10.00243
_cell_length_c       10.18004
_cell_angle_alpha    90.0000
_cell_angle_beta     90.0000
_cell_angle_gamma   120.0000
_cell_formula_units_Z 12
loop_
_atom_site_label
_atom_site_fract_x
_atom_site_fract_y
_atom_site_fract_z
_atom_site_occupancy
_atom_site_B_iso_or_equiv
o      0.934   0.467   0.750    1.00000    1.000
si      0.432   0.864   0.397    1.00000    1.000
o      0.508   0.754   0.416    1.00000    1.000
o      0.000   0.500   0.500    1.00000    1.000
_cell_measurement_wavelength    1.541874
_cell_measurement_radiation   'x-rays'
_exptl_crystal_density_diffrn    1.357000
loop_
_pd_peak_d_spacing
_pd_peak_intensity
     8.662358       1000.00
     6.597209        628.34
     5.090020         51.13
     5.001215         10.45
     4.388476         24.62
     4.331179        169.32
     3.985461          4.05
     3.567376          2.66
     3.298604          0.95
     3.274064          4.15
     3.159568        161.92
     3.116832         90.71
     2.887453         81.84
     2.777873         40.68
     2.753602          0.71
     2.671161          1.99
     2.545010          6.89
     2.511490          5.39
     2.500607          0.07
     2.441804          5.81
     2.402506         22.60
     2.356154         21.38
     2.338271          3.44
     2.268214         11.48
     2.244388          0.05
     2.199070          2.19
     2.194238          6.30
     2.172646          0.04
     2.165590         10.93
     2.118192         17.60
     2.009351          1.90
     1.992730          5.44
     1.987281          6.66
     1.981997          2.16
     1.960807         16.90
     1.950464          7.91
     1.909244          4.39
     1.890282          6.77
     1.858513          0.33
     1.851192          0.00
     1.842578          0.03
     1.825515         18.59
     1.783688         17.94
     1.772032          2.27
     1.747035         25.00
     1.732472          0.21
     1.728967          0.49
     1.714847          0.26
     1.707916          9.01
     1.696673          8.40
     1.667072         19.46
     1.665035          6.11
     1.663949          0.15
     1.651351          1.22
     1.649302          6.00
     1.640074          0.06
     1.637032          0.47
     1.616268          6.84
     1.606730          2.03
     1.584265          0.48
     1.579784          0.19
     1.566327          0.00
     1.558416          0.22
     1.555806          3.50
     1.553266          0.62
     1.543004          2.18
     1.537948          0.02
     1.517497          0.26
     1.506415          0.19
     1.487854          0.11
     1.483371          0.02
     1.474425          7.95
     1.462825          5.59
     1.443726          1.17
     1.434220          9.43
     1.432139          1.80
     1.429423          3.48
     1.424083          9.85
     1.422135          1.01
     1.414246          0.14
     1.410350          9.06
     1.404000          2.78
     1.394528          9.49
     1.388936          0.03
     1.387087          1.28
     1.385914          7.04
     1.385287          2.05
     1.378650          0.38
     1.376801          8.22
     1.374388          0.10
     1.371419          1.47
     1.338285          0.90
     1.335581          0.00
     1.329076          8.48
     1.328487          2.48
     1.327420          1.81
     1.320997          0.70
     1.319442          1.02
     1.313134         32.41
     1.310014          2.29
     1.298851          7.52
     1.290361          0.30
     1.283960          2.05
     1.278638          0.22
     1.275789          0.01
     1.272505          0.81
     1.262647          0.49
     1.258993          0.67
     1.255745          4.15
     1.250304          7.18
     1.244114          0.17
     1.242755          2.28
     1.237480          2.11
     1.236201          0.04
     1.233212          0.10
     1.231009          6.30
     1.228437          2.42
     1.220902          3.55
     1.217939          4.44
     1.214209          3.42
     1.212188          0.01
     1.207318          5.39
     1.202453          2.04
     1.201253          0.23
     1.192976          0.56
     1.189125          8.40
     1.186071          1.24
     1.178077          3.94
     1.177692          0.00
     1.173606          1.04
     1.172465          0.56
     1.169136          0.85
     1.166956          0.01
     1.164442          0.66
     1.162586          7.01
     1.152639          0.29
     1.147357          1.64
     1.146693          2.72
     1.146338          0.47
     1.140139          0.26
     1.134107          0.51
     1.132392          0.03
     1.124510          1.61
     1.122194          2.14
     1.121594          1.34
     1.119274          1.62
     1.113870          1.98
     1.112894          5.81
     1.109101          1.32
     1.108180          0.13
     1.102577          0.04
     1.099535          2.75
     1.097119          0.05
     1.094410          0.01
     1.091355          0.67
     1.090783          2.83
     1.087231          3.31
     1.086908          0.28
     1.086323          0.10
     1.085137          1.26
     1.083674          0.12
     1.082795          0.05
     1.076721          0.04
     1.073888          1.41
     1.071637          1.22
     1.069112          0.22
     1.067102          0.06
     1.062416          0.00
     1.059096          0.70
     1.058276          1.12
     1.057475          0.09
     1.055603          0.07
     1.054220          0.00
     1.053189          0.01
     1.052603          0.44
     1.045976          1.94
     1.042326          0.01
     1.038944          2.66
     1.036118          0.29
     1.034600          0.09
     1.031551          1.23
     1.025582          0.00
     1.024584          2.53
     1.023368          0.83
     1.018004          1.22
     1.017491          6.94
     1.016747          0.12
     1.013852          0.08
     1.011502          0.52
     1.011046          1.00
     1.010284          0.07
     1.008861          0.01
     1.006529          1.77
##############################################################################
###                            Comments                                    ###
##############################################################################
###   Diffraction pattern calculated by Match!. 
###   I/Ic calculated by Match!. 
###   Space group has been derived from given symmetry operations. 
##############################################################################


