##############################################################################
###               Crystal structure data exported by Match!                ###
##############################################################################
###                           Data published by:                           ###
###                                                                        ###
###               COD (Crystallography Open Database)
##############################################################################
data_1011097
_citation_journal_full    'Zeitschrift fuer Kristallographie, Kristallgeometrie, Kristallphysik,Kristallchemie (-144,1977)'
_citation_journal_volume  '92'
_citation_page_first  '355'
_citation_page_last   '362'
_citation_year  '1935'
_citation_title  'Die Bindung im Quarz'
loop_
_publ_author_name
  'Wei P. H.'
_chemical_formula_sum  'O2 Si'
_chemical_name_mineral  'Quartz low'
_chemical_name_common  'Silicon oxide $-alpha'
_symmetry_space_group_name_H-M 'P 31 2 1'
_space_group_IT_number 152
_space_group_crystal_system 'trigonal (hexagonal axes)'
loop_
_symmetry_equiv_pos_as_xyz
   'x, y, z'
   '-y, x-y, z+0.33333'
   '-x+y, -x, z+0.66667'
   'x-y, -y, -z+0.66667'
   '-x, -x+y, -z+0.33333'
   'y, x, -z'
_cell_length_a        4.91300
_cell_length_b        4.91300
_cell_length_c        5.40400
_cell_angle_alpha    90.0000
_cell_angle_beta     90.0000
_cell_angle_gamma   120.0000
_cell_formula_units_Z 3
loop_
_atom_site_label
_atom_site_fract_x
_atom_site_fract_y
_atom_site_fract_z
_atom_site_occupancy
_atom_site_B_iso_or_equiv
si      0.465   0.000   0.333    1.00000    1.000
o      0.417   0.278   0.222    1.00000    1.000
_cell_measurement_wavelength    1.541874
_cell_measurement_radiation   'x-rays'
_exptl_crystal_density_diffrn    2.649000
_exptl_crystal_density_meas      2.660000
loop_
_pd_peak_d_spacing
_pd_peak_intensity
     4.254783        222.72
     3.342973       1000.00
     2.456500         78.37
     2.280929         87.74
     2.236294         43.34
     2.127391         60.14
     1.979525         32.23
     1.817617        105.61
     1.801333          5.12
     1.671486         46.52
     1.658796         18.98
     1.608157          2.18
     1.541355         89.28
     1.452632         18.78
     1.418261          2.56
     1.381917         57.85
     1.374720         58.90
     1.371804         49.91
     1.287647         26.71
     1.255781         26.92
     1.228250         10.76
     1.199643         29.72
     1.197704          8.81
     1.183783         20.70
     1.180064         29.43
     1.152897         11.55
     1.140465          2.18
     1.118147          0.23
     1.114324          2.60
     1.081427         28.26
     1.063696          3.34
     1.047532         12.38
     1.043670         11.49
     1.034420         13.11
     1.014796         12.19
##############################################################################
###                            Comments                                    ###
##############################################################################
###   Diffraction pattern calculated by Match!. 
###   I/Ic calculated by Match!. 
###   Space group has been derived from given symmetry operations. 
##############################################################################


