##############################################################################
###               Crystal structure data exported by Match!                ###
##############################################################################
###                           Data published by:                           ###
###                                                                        ###
###               COD (Crystallography Open Database)
##############################################################################
data_9015575
_citation_journal_full    'Physical Review B'
_citation_journal_volume  '71'
_citation_page_first  '052409'
_citation_page_last   '052404'
_citation_year  '2005'
_citation_title  'Unconventional magnetic transitions in the mineral clinoatacamite'
loop_
_publ_author_name
  'Zheng X. G.'
  'Kawae T.'
  'Kashitani Y.'
  'Li C. S.'
  'Tateiwa N.'
  'Takeda K.'
  'Yamada H.'
  'Xu C. N.'
  'Ren Y.'
_chemical_formula_sum  'Cl Cu2 H3 O3'
_chemical_name_mineral  'Clinoatacamite'
_symmetry_space_group_name_H-M 'P 1 21/n 1'
_space_group_IT_number 14
_space_group_crystal_system 'monoclinic'
loop_
_symmetry_equiv_pos_as_xyz
   'x, y, z'
   '-x+0.5, y+0.5, -z+0.5'
   '-x, -y, -z'
   'x+0.5, -y+0.5, z+0.5'
_cell_length_a        6.16370
_cell_length_b        6.81660
_cell_length_c        9.11400
_cell_angle_alpha    90.0000
_cell_angle_beta     99.6515
_cell_angle_gamma    90.0000
loop_
_atom_site_label
_atom_site_fract_x
_atom_site_fract_y
_atom_site_fract_z
_atom_site_occupancy
_atom_site_B_iso_or_equiv
cu      0.000   0.500   0.500    1.00000    0.568
cu      0.000   0.000   0.000    1.00000    0.568
cu      0.259   0.236   0.747    1.00000    0.568
o      0.311   0.288   0.551    1.00000    0.994
o      0.425   -0.008   0.779    1.00000    0.994
o      0.252   0.684   0.536    1.00000    0.994
cl      0.113   -0.004   0.308    1.00000    1.113
_cell_measurement_wavelength    1.541874
_cell_measurement_radiation   'x-rays'
_exptl_crystal_density_diffrn    3.758000
loop_
_pd_peak_d_spacing
_pd_peak_intensity
     5.477620        507.59
     5.430611       1000.00
     4.682332        233.39
     4.535894         26.84
     4.492499         13.91
     4.269855          2.79
     3.859516          1.34
     3.751115          4.13
     3.412574         53.36
     3.408300         25.43
     3.186729          8.98
     3.038229          4.40
     3.009168         16.95
     2.972618         10.80
     2.893839        214.80
     2.885057        122.99
     2.775063         13.45
     2.773954        418.71
     2.755584        419.10
     2.742006        360.78
     2.738810         99.56
     2.715305        191.21
     2.656888          0.89
     2.578277          1.70
     2.543914          6.98
     2.541354          0.14
     2.523851          0.90
     2.390468          0.31
     2.366830          1.77
     2.341166        182.84
     2.267947        608.47
     2.267342          6.19
     2.249795          2.21
     2.246250        280.75
     2.214213          0.16
     2.211400         21.10
     2.202853         24.89
     2.202059         14.59
     2.136445          1.81
     2.134928          0.39
     2.133403          0.24
     2.128271          1.25
     2.121288          1.74
     2.098792          4.14
     2.051048         43.97
     2.044218          0.06
     2.028291         95.65
     2.027611          0.31
     1.971075          0.69
     1.968604          3.30
     1.964065          1.09
     1.941585          6.06
     1.929758          3.77
     1.927895          0.34
     1.919667          6.92
     1.908453         50.12
     1.896718          0.91
     1.895976         92.87
     1.893504          2.81
     1.881096          0.24
     1.875557          0.41
     1.867309          2.29
     1.837785          4.55
     1.825873         28.71
     1.819619          1.92
     1.819306        164.40
     1.810204         52.19
     1.807609         90.95
     1.785057          0.35
     1.763699          1.45
     1.757377         15.42
     1.749566         19.22
     1.748733          0.46
     1.747221          0.73
     1.741218          4.30
     1.737634         21.62
     1.725357          2.63
     1.708638          1.02
     1.708095          1.69
     1.706287        261.90
     1.704150        134.53
     1.686299          7.10
     1.676814          1.31
     1.674301          3.89
     1.665177         40.75
     1.649652         16.89
     1.640843          6.42
     1.630524          0.12
     1.629400         30.21
     1.628274          0.10
     1.627219         24.57
     1.626260         28.90
     1.609471         14.63
     1.603368          0.34
     1.601771          8.83
     1.601386         12.80
     1.597434          0.14
     1.596920         12.48
     1.593364          4.10
     1.592329          8.47
     1.589590          1.12
     1.564247          3.37
     1.560777          3.62
     1.550006          0.08
     1.522508          1.22
     1.521406          0.36
     1.519252          2.38
     1.519114         33.87
     1.518387          5.51
     1.511965          0.89
     1.504584         68.86
     1.503000         52.76
     1.502995          0.95
     1.501545         11.37
     1.497500          0.27
     1.490486          0.10
     1.490126         45.85
     1.488925          0.82
     1.486309          0.74
     1.486138          4.60
     1.484869         55.27
     1.483599          0.93
     1.482741          3.48
     1.482064          0.06
     1.481165          2.91
     1.478144          0.43
     1.472343         15.57
     1.467294         30.31
     1.462622          0.41
     1.461374          0.90
     1.447391          0.99
     1.446919         41.00
     1.442529         25.41
     1.439155          2.42
     1.425948         15.92
     1.424745          5.73
     1.423285          0.29
     1.419062         15.91
     1.414583          0.67
     1.412882         19.52
     1.412340          2.78
     1.411274          0.82
     1.409481          7.85
     1.404091          1.20
     1.387532          5.46
     1.386977         72.18
     1.383763          0.39
     1.381665          9.33
     1.377792         66.92
     1.377114          1.55
     1.371817          7.38
     1.371008          1.77
     1.371003         76.23
     1.369405         37.56
     1.364422          6.09
     1.357653         69.81
     1.354514          2.03
     1.351619         18.83
     1.349202          0.14
     1.348056         17.63
     1.347892         20.42
     1.344091          0.27
     1.342581          3.05
     1.340661          0.17
     1.339661          0.05
     1.334931          0.01
     1.334009          0.80
     1.330250          0.73
     1.329785          1.12
     1.328444          0.19
     1.322960          0.20
     1.310752         16.54
     1.308964          0.36
     1.304573          0.36
     1.304006          1.91
     1.300730         10.06
     1.297304          3.19
     1.295377          0.13
     1.290294          3.37
     1.290151          0.63
     1.289918          1.15
     1.289146          1.21
     1.289139          2.39
     1.288447          2.00
     1.286505          0.00
     1.277677          0.74
     1.275318         19.96
     1.271957         65.34
     1.271132         15.13
     1.270677          0.59
     1.262951          1.16
     1.262872          1.23
     1.262454          0.24
     1.261925         31.85
     1.261403         13.18
     1.260028          0.38
     1.250372          0.18
     1.249968          7.86
     1.248349         24.31
     1.245827         14.91
     1.244620          3.53
     1.243835          0.33
     1.243735         18.42
     1.240842          0.05
     1.240815         25.56
     1.239979         26.36
     1.239554         16.60
     1.236538          1.65
     1.235615          1.12
     1.232626          0.08
     1.232075          4.49
     1.227226          4.84
     1.226459          0.22
     1.226081          0.42
     1.224378          0.78
     1.220756          0.37
     1.220473          0.27
     1.218868         10.50
     1.217835          1.11
     1.217628          0.16
     1.215332          2.29
     1.215239          0.11
     1.212430          0.25
     1.206720          1.00
     1.201211          0.07
     1.199505          0.02
     1.198281          2.53
     1.196464          0.42
     1.196426          0.76
     1.195234          0.24
     1.194437          1.81
     1.192208          1.16
     1.191324          0.13
     1.189922          0.81
     1.187344          1.19
     1.185279          4.17
     1.184633          0.57
     1.183415          0.19
     1.182298          0.10
     1.180185          1.30
     1.178370         11.22
     1.178124          0.00
     1.177699          1.10
     1.177093          0.63
     1.173874          0.03
     1.172867          1.28
     1.170583         14.01
     1.169107         20.38
     1.168921          0.01
     1.165458          0.02
     1.163471          0.00
     1.161148          2.19
     1.159927          0.48
     1.158692          4.00
     1.153705          0.03
     1.153696          0.07
     1.152104          0.50
     1.150991          3.96
     1.144733          5.87
     1.144699          0.77
     1.142959          2.08
     1.137525          4.13
     1.136687          0.12
     1.136100          2.79
     1.135383          0.57
     1.133974         15.41
     1.133671          1.72
     1.131913          0.65
     1.130990          0.86
     1.130451         11.39
     1.128851          0.33
     1.127125          1.91
     1.126609          0.13
     1.124898          0.37
     1.123499          0.80
     1.123125          7.05
     1.121915          0.33
     1.121762         11.77
     1.121249          0.01
     1.117580          9.36
     1.116749          1.10
     1.116060          0.00
     1.114116          6.54
     1.113687          2.94
     1.112609          6.58
     1.112425          5.66
     1.111411          0.30
     1.109604          5.05
     1.109341          0.00
     1.108471         12.92
     1.108184          0.37
     1.107955          0.67
     1.107391          0.17
     1.107107          0.00
     1.105700         16.99
     1.104065          9.99
     1.103205          0.00
     1.103141          0.47
     1.102438          2.90
     1.102300         12.87
     1.101793          0.72
     1.101426         15.01
     1.101396          0.41
     1.101030         18.05
     1.095524          1.02
     1.092401          0.08
     1.092050          0.17
     1.091670          1.94
     1.091587          0.28
     1.088452          0.16
     1.086122          3.13
     1.083094          0.20
     1.081983          0.33
     1.081644          1.37
     1.080340          0.25
     1.079018          0.18
     1.078343          1.89
     1.076032          1.15
     1.073240          0.40
     1.071667          0.27
     1.071639          0.77
     1.069579          0.00
     1.068222          1.13
     1.067464         23.22
     1.066702          0.42
     1.065589          6.47
     1.064136         22.46
     1.064073          2.05
     1.062243          2.01
     1.062202          0.03
     1.061576         10.88
     1.061574          0.07
     1.060644         20.16
     1.060088          5.31
     1.059922          0.37
     1.059700          1.08
     1.057811          0.13
     1.057259          4.93
     1.057092          2.35
     1.052803          0.01
     1.050891          0.01
     1.050441          2.69
     1.049576          1.18
     1.049396          0.66
     1.047919          2.17
     1.046067          0.65
     1.045174          0.31
     1.042970         12.11
     1.040613          0.80
     1.040608          0.04
     1.039440          0.68
     1.035978         10.89
     1.033960         11.89
     1.028075          0.02
     1.026772          0.04
     1.025524         15.92
     1.025278          0.65
     1.024944          0.41
     1.023605          0.11
     1.023255          0.33
     1.022109          0.15
     1.021832          0.92
     1.021058         12.45
     1.020470          0.40
     1.019110          0.72
     1.018287          0.02
     1.018232          0.89
     1.017042          0.32
     1.014636          0.43
     1.014419          0.21
     1.014274          2.60
     1.014145         28.48
     1.014111          0.15
     1.013805          0.76
     1.013442          0.67
     1.013160          0.32
     1.012743          0.32
     1.012661          6.84
     1.012636          0.08
     1.012497          1.26
     1.010317          0.44
     1.009261          0.02
     1.008119          0.54
     1.006843          0.07
##############################################################################
###                            Comments                                    ###
##############################################################################
###   Synthetic
###   Diffraction pattern calculated by Match!. 
###   I/Ic calculated by Match!. 
##############################################################################


