##############################################################################
###               Crystal structure data exported by Match!                ###
##############################################################################
###                           Data published by:                           ###
###                                                                        ###
###               COD (Crystallography Open Database)
##############################################################################
data_9008106
_citation_journal_full    'Zeitschrift fur Kristallographie'
_citation_journal_volume  '121'
_citation_page_first  '204'
_citation_page_last   '210'
_citation_year  '1965'
_citation_title  'Refinement of the structure of celestite SrSO4Locality: France Stone Company's quarry near Waterville, Ohio, USA'
loop_
_publ_author_name
  'Garske D.'
  'Peacor D. R.'
_chemical_formula_sum  'O4 S Sr'
_chemical_name_mineral  'Celestine'
_symmetry_space_group_name_H-M 'P n m a'
_space_group_IT_number 62
_space_group_crystal_system 'orthorhombic'
loop_
_symmetry_equiv_pos_as_xyz
   'x, y, z'
   '-x+0.5, -y, z+0.5'
   'x+0.5, -y+0.5, -z+0.5'
   '-x, y+0.5, -z'
   '-x, -y, -z'
   'x+0.5, y, -z+0.5'
   '-x+0.5, y+0.5, z+0.5'
   'x, -y+0.5, z'
_cell_length_a        8.37700
_cell_length_b        5.35000
_cell_length_c        6.87300
_cell_angle_alpha    90.0000
_cell_angle_beta     90.0000
_cell_angle_gamma    90.0000
loop_
_atom_site_label
_atom_site_fract_x
_atom_site_fract_y
_atom_site_fract_z
_atom_site_occupancy
_atom_site_B_iso_or_equiv
sr      0.184   0.250   0.158    1.00000    0.529
s      0.438   0.750   0.188    1.00000    0.150
o      0.603   0.750   0.093    1.00000    0.640
o      0.305   0.750   0.033    1.00000    1.519
o      0.420   0.979   0.312    1.00000    0.210
_cell_measurement_wavelength    1.541874
_cell_measurement_radiation   'x-rays'
_exptl_crystal_density_diffrn    3.961000
loop_
_pd_peak_d_spacing
_pd_peak_intensity
     5.313469          0.12
     4.221744        112.23
     4.188500         57.36
     3.770039        353.00
     3.576670         17.46
     3.436500        266.02
     3.298003        918.07
     3.179371        495.44
     2.973401       1000.00
     2.733167        631.98
     2.675000        500.96
     2.656734         15.99
     2.586980         59.60
     2.389298         33.81
     2.379496        174.18
     2.328989          2.01
     2.254453        147.34
     2.209847         48.02
     2.167114         67.16
     2.142155        284.89
     2.110872         10.25
     2.106026          0.63
     2.094250         16.59
     2.046887        481.51
     2.042468        410.12
     2.009974         41.72
     2.008586        342.57
     2.003314        417.42
     1.950160        139.38
     1.885020          5.39
     1.881566          0.33
     1.876099          0.00
     1.859610         53.96
     1.788335          1.81
     1.771156        188.36
     1.726173         33.42
     1.718250         29.25
     1.703687          5.35
     1.696087          0.49
     1.690653         33.13
     1.683874          0.00
     1.683207         47.26
     1.681411         89.43
     1.649001          0.49
     1.640802         76.20
     1.627736         18.59
     1.606905          8.73
     1.605616         46.07
     1.603495        142.59
     1.595953        109.60
     1.589686         12.30
     1.557255         26.07
     1.555367        119.15
     1.545744          5.65
     1.523838         18.97
     1.505959          9.17
     1.486700          0.97
     1.485004          1.18
     1.480683         23.06
     1.476786        205.57
     1.468273          3.98
     1.463387          0.23
     1.449623         58.24
     1.445697         32.33
     1.424637        114.30
     1.411535         25.53
     1.407248          0.11
     1.396167          1.37
     1.390531         44.80
     1.387802         83.79
     1.377029         84.62
     1.368222          1.24
     1.366584         14.75
     1.357761         47.38
     1.356459          0.73
     1.352363         43.14
     1.350923         61.73
     1.338365          0.08
     1.337500         92.45
     1.333970          0.01
     1.332018          0.52
     1.331357         46.65
     1.328367          1.31
     1.325560         99.16
     1.314855          0.02
     1.312291          0.80
     1.311124         62.30
     1.306064         15.54
     1.297039          0.19
     1.293490          0.23
     1.289222         37.99
     1.283833         24.03
     1.274116          4.81
     1.268803         58.77
     1.262772          0.55
     1.257265          8.02
     1.256680         47.15
     1.252772          5.00
     1.246423         19.33
     1.237723         23.76
     1.233266          5.12
     1.232851         53.40
     1.224074         31.18
     1.218128          3.48
     1.209805          9.20
     1.206896        123.13
     1.202236         12.60
     1.201750         14.94
     1.199550          1.12
     1.194649          0.35
     1.192223          0.18
     1.189748          1.70
     1.188102         13.33
     1.186658          9.13
     1.178976          0.00
     1.173644         35.98
     1.170489         20.02
     1.168041          0.62
     1.164495          6.48
     1.163679          0.33
     1.151351          5.29
     1.150587         20.22
     1.149169         52.46
     1.145500         26.93
     1.144240          4.77
     1.138180          6.74
     1.134938          0.72
     1.131262         12.28
     1.130149         43.72
     1.127227          2.26
     1.123542          0.55
     1.119970          9.12
     1.113502          8.00
     1.112365         99.68
     1.110231          0.60
     1.105747         12.36
     1.104924          4.68
     1.099334         29.15
     1.094537          1.08
     1.088963          0.18
     1.088713         25.66
     1.085536         39.95
     1.083557          5.42
     1.082087         57.25
     1.079633          0.20
     1.078841          1.79
     1.077565         40.92
     1.071077          0.35
     1.067352         64.82
     1.065307         21.52
     1.062694          0.00
     1.061995          7.86
     1.060721          0.69
     1.059790          0.62
     1.057264          1.60
     1.055861         62.29
     1.055436         11.53
     1.053699         30.90
     1.053013         23.17
     1.048943          9.67
     1.047157         24.24
     1.047125         30.22
     1.047063          5.11
     1.044791          0.02
     1.042330          8.71
     1.041051         55.79
     1.040468         34.87
     1.039590          5.57
     1.036707         28.85
     1.035180          1.99
     1.033387         10.36
     1.027627          1.45
     1.025111         38.10
     1.023444          6.95
     1.021234         16.49
     1.016329          9.69
     1.014341         15.83
     1.014110         17.98
     1.011428          1.59
##############################################################################
###                            Comments                                    ###
##############################################################################
###   Diffraction pattern calculated by Match!. 
###   I/Ic calculated by Match!. 
###   Space group has been derived from given symmetry operations. 
##############################################################################


