##############################################################################
###               Crystal structure data exported by Match!                ###
##############################################################################
###                           Data published by:                           ###
###                                                                        ###
###               COD (Crystallography Open Database)
##############################################################################
data_9010312
_citation_journal_full    'American Mineralogist'
_citation_journal_volume  '92'
_citation_page_first  '1464'
_citation_page_last   '1473'
_citation_year  '2007'
_citation_title  'Jarosite - hydronium jarosite solid solution series withfull iron occupancy: Mineralogy and crystal chemistryLocality: syntheticSample: F'
loop_
_publ_author_name
  'Basciano L. C.'
  'Peterson R. C.'
_chemical_formula_sum  'Fe3 H6.4 K0.6 O14 S2'
_chemical_name_mineral  'Jarosite'
_symmetry_space_group_name_H-M 'R -3 m'
_space_group_IT_number 166
_space_group_crystal_system 'trigonal (hexagonal axes)'
loop_
_symmetry_equiv_pos_as_xyz
   'x, y, z'
   'x+0.66667, y+0.33333, z+0.33333'
   'x+0.33333, y+0.66667, z+0.66667'
   '-y, x-y, z'
   '-y+0.66667, x-y+0.33333, z+0.33333'
   '-y+0.33333, x-y+0.66667, z+0.66667'
   '-x+y, -x, z'
   '-x+y+0.66667, -x+0.33333, z+0.33333'
   '-x+y+0.33333, -x+0.66667, z+0.66667'
   'x-y, -y, -z'
   'x-y+0.66667, -y+0.33333, -z+0.33333'
   'x-y+0.33333, -y+0.66667, -z+0.66667'
   '-x, -x+y, -z'
   '-x+0.66667, -x+y+0.33333, -z+0.33333'
   '-x+0.33333, -x+y+0.66667, -z+0.66667'
   'y, x, -z'
   'y+0.66667, x+0.33333, -z+0.33333'
   'y+0.33333, x+0.66667, -z+0.66667'
   '-x, -y, -z'
   '-x+0.66667, -y+0.33333, -z+0.33333'
   '-x+0.33333, -y+0.66667, -z+0.66667'
   'y, -x+y, -z'
   'y+0.66667, -x+y+0.33333, -z+0.33333'
   'y+0.33333, -x+y+0.66667, -z+0.66667'
   'x-y, x, -z'
   'x-y+0.66667, x+0.33333, -z+0.33333'
   'x-y+0.33333, x+0.66667, -z+0.66667'
   '-x+y, y, z'
   '-x+y+0.66667, y+0.33333, z+0.33333'
   '-x+y+0.33333, y+0.66667, z+0.66667'
   'x, x-y, z'
   'x+0.66667, x-y+0.33333, z+0.33333'
   'x+0.33333, x-y+0.66667, z+0.66667'
   '-y, -x, z'
   '-y+0.66667, -x+0.33333, z+0.33333'
   '-y+0.33333, -x+0.66667, z+0.66667'
_cell_length_a        7.32070
_cell_length_b        7.32070
_cell_length_c       17.15170
_cell_angle_alpha    90.0000
_cell_angle_beta     90.0000
_cell_angle_gamma   120.0000
loop_
_atom_site_label
_atom_site_fract_x
_atom_site_fract_y
_atom_site_fract_z
_atom_site_occupancy
_atom_site_B_iso_or_equiv
k      0.000   0.000   0.000    0.60000    1.099
o      0.000   0.000   0.000    0.40000    1.099
fe      0.167   -0.167   -0.167    1.00000    2.300
s      0.000   0.000   0.310    1.00000    1.899
o      0.000   0.000   0.395    1.00000    4.600
o      0.221   -0.221   -0.056    1.00000    2.700
o      0.127   -0.127   0.136    1.00000    1.999
h      0.177   -0.177   0.111    1.00000    1.999
_cell_measurement_wavelength    1.541874
_cell_measurement_radiation   'x-rays'
_exptl_crystal_density_diffrn    3.039000
loop_
_pd_peak_d_spacing
_pd_peak_intensity
     5.946663        275.44
     5.717233        313.62
     5.098054        712.30
     3.660350         76.70
     3.551835         43.82
     3.117165        735.59
     3.082685       1000.00
     3.017023         11.39
     2.973331        119.14
     2.858617        188.14
     2.549027        217.32
     2.373212         18.35
     2.328114         13.62
     2.307861         13.09
     2.285493        294.25
     2.252968          1.02
     2.113304          3.31
     2.091787          0.45
     2.030976          4.60
     1.982221        292.33
     1.964432          3.94
     1.938624         89.37
     1.905744         47.55
     1.830175        297.81
     1.775918         44.91
     1.749207          2.99
     1.743044         47.52
     1.722540         34.48
     1.713179         19.18
     1.699351          0.05
     1.690362         23.10
     1.655652          0.27
     1.626897         25.73
     1.597790         42.25
     1.578254         34.49
     1.564776         30.71
     1.558583         48.66
     1.541342        142.43
     1.514125          0.74
     1.508512        163.21
     1.486666         50.55
     1.449274         15.40
     1.438817         23.52
     1.433998         23.65
     1.429308          2.54
     1.428584         25.75
     1.415272         28.69
     1.399145         26.92
     1.394712          0.00
     1.383482          5.12
     1.377392          5.83
     1.359594          4.45
     1.344673         66.47
     1.339079          0.55
     1.331403          1.15
     1.330817         17.82
     1.320036         20.62
     1.306922          0.25
     1.291688         11.57
     1.274513          3.83
     1.264532          0.13
     1.254346          0.61
     1.250718         46.01
     1.245306          1.09
     1.227799          8.16
     1.220117         14.18
     1.218070          2.21
     1.215933          0.14
     1.203636          0.74
     1.202869          0.14
     1.195218         18.09
     1.193247         15.37
     1.189333          0.01
     1.186606          9.07
     1.183945          6.38
     1.166631          0.31
     1.164057         22.65
     1.155757         25.20
     1.153931         27.02
     1.143447          0.36
     1.142747          4.90
     1.136181          0.43
     1.131121         28.15
     1.128775          5.32
     1.126484         15.01
     1.126129          1.70
     1.122174          0.00
     1.119574          9.74
     1.111539         11.65
     1.109313          0.08
     1.100538          1.10
     1.091432          1.12
     1.091395          3.22
     1.090823          6.01
     1.080698          5.28
     1.076341          1.02
     1.063581          0.00
     1.056978          0.08
     1.056652         12.08
     1.055322         13.53
     1.045893          9.48
     1.040356          0.41
     1.039055          3.35
     1.034662          1.93
     1.032622          3.54
     1.027562          0.67
     1.019611          0.00
     1.015488         15.91
     1.015198          0.53
     1.014019          0.49
     1.012785          0.09
##############################################################################
###                            Comments                                    ###
##############################################################################
###   Diffraction pattern calculated by Match!. 
###   I/Ic calculated by Match!. 
##############################################################################


