##############################################################################
###               Crystal structure data exported by Match!                ###
##############################################################################
###                           Data published by:                           ###
###                                                                        ###
###               COD (Crystallography Open Database)
##############################################################################
data_8103050
_citation_journal_full    'ur Kristallographie - New Crystal Structures''
_citation_journal_volume  '225(2)'
_citation_page_first  '219'
_citation_year  '2010'
_citation_title  'Refinement of the crystal structure of dilead(II) oxide chromate(VI),Pb2O(CrO4)'
loop_
_publ_author_name
  'Wilhelm Klein'
  'Martin Jansen'
_chemical_formula_sum  'Cr O5 Pb2'
_chemical_name_common  'Lead Chromate Oxide'
_symmetry_space_group_name_H-M 'C 1 2/m 1'
_space_group_IT_number 12
_space_group_crystal_system 'monoclinic'
loop_
_symmetry_equiv_pos_as_xyz
   'x, y, z'
   'x+0.5, y+0.5, z'
   '-x, y, -z'
   '-x+0.5, y+0.5, -z'
   '-x, -y, -z'
   '-x+0.5, -y+0.5, -z'
   'x, -y, z'
   'x+0.5, -y+0.5, z'
_cell_length_a       14.06300
_cell_length_b        5.70350
_cell_length_c        7.17190
_cell_angle_alpha    90.0000
_cell_angle_beta    115.1890
_cell_angle_gamma    90.0000
_cell_formula_units_Z 4
loop_
_atom_site_label
_atom_site_fract_x
_atom_site_fract_y
_atom_site_fract_z
_atom_site_occupancy
_atom_site_B_iso_or_equiv
pb      0.020   0.000   0.267    1.00000    1.024
pb      0.357   0.000   0.887    1.00000    1.160
cr      0.330   0.000   0.341    1.00000    0.860
o      0.407   0.000   0.593    1.00000    2.139
o      0.204   0.000   0.296    1.00000    2.605
o      0.352   0.233   0.227    1.00000    1.823
o      0.000   0.247   0.000    1.00000    1.058
_cell_measurement_wavelength    1.541874
_cell_measurement_radiation   'x-rays'
_cell_measurement_temperature    293.000000
_exptl_crystal_density_diffrn    6.972000
_exptl_crystal_colour            'red'
loop_
_pd_peak_d_spacing
_pd_peak_intensity
     6.489915        141.55
     6.362866        176.57
     5.994486        106.38
     5.204671         19.38
     4.456496        138.55
     3.805410         82.35
     3.753865         35.06
     3.570462          9.22
     3.554735         48.74
     3.506824          2.32
     3.403732       1000.00
     3.244957        114.51
     3.181433          4.68
     2.997834        705.04
     2.997243        192.48
     2.893450        226.68
     2.851750        347.31
     2.663329         25.02
     2.610815         11.24
     2.602335         31.71
     2.575194         45.11
     2.560753          0.16
     2.521170        126.48
     2.493035        145.59
     2.471072         55.51
     2.380004         49.51
     2.376792          8.54
     2.329987         21.37
     2.324230         82.69
     2.301434          0.00
     2.282064        108.21
     2.272795        103.70
     2.228248          0.48
     2.212525         13.95
     2.196680         36.94
     2.163305          0.54
     2.142095         51.75
     2.133577          6.46
     2.123515          0.72
     2.120955         91.89
     2.066013        214.64
     2.028084         10.49
     2.023627          3.94
     1.998162         42.44
     1.959691         43.00
     1.902705          0.11
     1.884727         77.54
     1.880299          2.38
     1.876932        170.16
     1.876497         49.40
     1.873467          2.38
     1.867506         43.21
     1.837171         16.52
     1.827252         15.57
     1.825073          2.47
     1.804322          4.64
     1.802224          0.18
     1.790964          0.54
     1.785231         59.58
     1.777368         91.33
     1.776414          2.68
     1.761932         36.00
     1.753939          6.31
     1.753412          4.39
     1.739312          0.26
     1.734890        125.23
     1.732100          7.39
     1.723915         38.80
     1.723513          0.19
     1.708684          0.76
     1.701866         56.06
     1.678797          0.31
     1.673188        119.09
     1.669314         28.51
     1.663160          2.16
     1.654368         39.40
     1.636436         36.73
     1.631763         69.27
     1.622479          0.02
     1.615532         73.01
     1.607673          4.62
     1.595655         14.39
     1.590716         12.57
     1.584260          0.14
     1.582752          3.19
     1.574751         31.22
     1.537651          1.91
     1.537219          1.79
     1.534643         80.68
     1.526401         63.94
     1.523491          0.19
     1.523140         18.78
     1.514180         23.01
     1.513184         73.73
     1.506935         49.60
     1.505937          0.11
     1.498917         30.61
     1.498621          3.24
     1.493661          4.81
     1.485499          8.73
     1.477606         42.70
     1.475300         48.78
     1.471390          1.23
     1.465520          1.26
     1.464402         32.20
     1.446725          0.04
     1.436682          7.09
     1.434108          4.82
     1.432922          6.23
     1.429956          2.31
     1.428391          0.76
     1.425875         47.62
     1.412248          1.71
     1.410214          1.74
     1.405363         14.69
     1.405341          0.39
     1.404892          0.01
     1.393209          0.23
     1.392659          3.97
     1.391367          5.62
     1.389208          9.89
     1.387172          3.68
     1.385411          0.85
     1.384120          0.05
     1.379772          9.04
     1.376930         22.67
     1.373712         17.31
     1.372521          0.60
     1.372424         10.24
     1.363136          3.42
     1.361141          0.00
     1.344258          0.35
     1.337354         18.92
     1.335221          8.23
     1.331664          0.42
     1.329041         15.96
     1.326598          1.06
     1.324187          0.40
     1.321550          0.73
     1.320864          0.59
     1.317063          0.12
     1.317056          0.12
     1.314267          0.76
     1.313923          2.05
     1.307320         18.81
     1.305407         10.56
     1.303614          0.31
     1.302031          0.36
     1.301168          0.22
     1.297983          9.96
     1.287597         25.68
     1.285875         10.26
     1.281222          5.06
     1.280377          8.87
     1.272573          2.02
     1.268475         27.05
     1.268470         12.11
     1.265563          6.39
     1.260805         28.77
     1.260585          2.71
     1.260261          0.71
     1.251807          0.15
     1.251288          5.63
     1.246517         11.52
     1.245201          0.17
     1.244051          1.30
     1.242821          0.47
     1.238943         12.92
     1.237732         29.64
     1.235536          5.38
     1.235017         10.04
     1.230288          4.23
     1.229857          3.90
     1.223160          8.44
     1.221209         35.39
     1.217044         26.33
     1.216210          3.33
     1.212094          0.03
     1.210894          0.29
     1.207853         21.32
     1.207107         20.98
     1.205361         30.70
     1.198897          5.21
     1.195695          0.24
     1.191874         19.32
     1.191577          0.06
     1.190531          0.05
     1.190154          0.44
     1.190002          0.01
     1.188605          0.45
     1.188396         27.39
     1.184912         14.35
     1.183325         20.90
     1.181370         19.30
     1.177431          0.08
     1.169900         35.25
     1.168941          8.11
     1.164994          5.17
     1.162115          2.27
     1.160662         11.34
     1.159110         15.33
     1.158988         14.02
     1.150750          2.32
     1.150717         15.38
     1.150476          4.25
     1.150306         12.36
     1.144497         11.97
     1.142171         16.05
     1.141881          0.35
     1.141032          0.15
     1.138775          0.25
     1.138718          4.92
     1.136397          0.06
     1.136145          0.36
     1.134577          4.72
     1.133796          4.81
     1.133705          9.15
     1.128178          0.01
     1.126419          2.60
     1.125617          0.14
     1.123613          0.56
     1.118508          0.11
     1.118219          0.07
     1.114830          0.01
     1.114124         22.05
     1.111971          0.71
     1.110151          2.43
     1.109696          8.45
     1.108393         13.27
     1.106395          1.69
     1.106262          1.26
     1.105325          0.61
     1.105201          8.37
     1.101566         25.91
     1.101053          0.40
     1.098740         16.11
     1.098340          1.16
     1.098253          0.12
     1.098221          0.62
     1.097777          0.00
     1.094698         19.42
     1.093828          0.25
     1.088316          0.69
     1.086782          0.07
     1.085256         22.46
     1.084950          0.00
     1.082506          1.00
     1.082222          1.56
     1.081652          3.27
     1.081602         11.59
     1.080695          0.06
     1.080070          9.85
     1.078472          9.78
     1.075608          7.18
     1.073800         26.26
     1.071047          0.02
     1.067116         22.92
     1.066788         19.69
     1.066755          0.90
     1.062368          0.02
     1.061757          5.86
     1.060478          0.03
     1.059831          0.03
     1.058772          0.86
     1.058013          0.24
     1.056970          6.94
     1.055667          0.06
     1.055618          7.75
     1.054979          0.02
     1.053328          0.98
     1.050249          2.32
     1.047008          0.02
     1.045531          0.34
     1.045402          0.85
     1.043569          9.44
     1.043368          0.23
     1.040934          4.85
     1.038106          0.13
     1.038061         11.97
     1.035393          0.09
     1.034613         19.31
     1.033006          1.60
     1.028679          2.75
     1.025857          0.09
     1.024686         14.46
     1.024474          1.08
     1.024106          7.53
     1.021974          0.37
     1.018466          7.09
     1.014042          0.29
     1.013475          1.12
     1.011927         22.46
     1.011813          4.17
     1.011348          5.47
     1.011144          3.08
     1.010728          3.97
     1.010565          0.02
     1.009686          0.98
     1.009433          1.66
     1.009134          0.41
     1.006402          8.79
##############################################################################
###                            Comments                                    ###
##############################################################################
###   Diffraction pattern calculated by Match!. 
###   I/Ic calculated by Match!. 
###   Space group has been derived from given symmetry operations. 
##############################################################################


