##############################################################################
###               Crystal structure data exported by Match!                ###
##############################################################################
###                           Data published by:                           ###
###                                                                        ###
###               COD (Crystallography Open Database)
##############################################################################
data_7219509
_citation_journal_full    'RSC Adv.'
_citation_year  '2015'
_citation_title  'Hydrothermal synthesis of single crystal CoAs2O4 and NiAs2O4 compounds and their magnetic properties'
loop_
_publ_author_name
  '\/Dor\/devic Tamara'
  'Wittwer Astrid'
  'Jaglicic Zvonko'
  'Djerdj Igor'
_chemical_formula_sum  'As2 Co O4'
_symmetry_space_group_name_H-M 'P 42/m b c'
_space_group_IT_number 135
_space_group_crystal_system 'tetragonal'
loop_
_symmetry_equiv_pos_as_xyz
   'x, y, z'
   '-y, x, z+0.5'
   '-x, -y, z'
   'y, -x, z+0.5'
   'x+0.5, -y+0.5, -z'
   '-x+0.5, y+0.5, -z'
   'y+0.5, x+0.5, -z+0.5'
   '-y+0.5, -x+0.5, -z+0.5'
   '-x, -y, -z'
   'y, -x, -z+0.5'
   'x, y, -z'
   '-y, x, -z+0.5'
   '-x+0.5, y+0.5, z'
   'x+0.5, -y+0.5, z'
   '-y+0.5, -x+0.5, z+0.5'
   'y+0.5, x+0.5, z+0.5'
_cell_length_a        8.34530
_cell_length_b        8.34530
_cell_length_c        5.62010
_cell_angle_alpha    90.0000
_cell_angle_beta     90.0000
_cell_angle_gamma    90.0000
_cell_formula_units_Z 4
loop_
_atom_site_label
_atom_site_fract_x
_atom_site_fract_y
_atom_site_fract_z
_atom_site_occupancy
_atom_site_B_iso_or_equiv
co      0.000   0.500   0.250    1.00000    0.531
as      0.188   0.172   0.000    1.00000    0.608
o      0.184   0.316   0.250    1.00000    1.002
o      0.108   0.639   0.000    1.00000    0.708
_cell_measurement_wavelength    1.541874
_cell_measurement_radiation   'x-rays'
_cell_measurement_temperature    293.000000
_exptl_crystal_density_diffrn    4.628000
_exptl_crystal_colour            'dark pink'
loop_
_pd_peak_d_spacing
_pd_peak_intensity
     5.901018        391.49
     4.172650        167.07
     3.732131         10.14
     3.350220          1.40
     3.109044       1000.00
     2.950509        370.49
     2.810050         72.57
     2.639015        266.58
     2.537076        157.47
     2.388769          4.68
     2.330786        371.19
     2.314570          2.08
     2.244874        102.21
     2.140177         17.23
     2.086325          0.01
     2.034850          3.30
     2.024032         12.28
     1.967006         10.43
     1.955903         10.36
     1.923690          0.06
     1.904301        416.60
     1.866066         66.72
     1.786558          0.70
     1.770994          4.15
     1.709026          0.30
     1.675110         86.42
     1.674278        149.12
     1.669060          0.64
     1.642351          5.29
     1.636648          0.17
     1.611442        270.13
     1.599993          8.90
     1.571373          4.12
     1.554522         17.28
     1.549683          0.64
     1.527603          0.83
     1.493930         29.83
     1.475255         14.09
     1.456167          5.04
     1.435016          5.46
     1.431207        106.54
     1.414260        124.86
     1.405025         60.82
     1.393899          3.12
     1.390883         72.60
     1.386941          7.92
     1.374852        128.53
     1.371959         12.47
     1.366816          7.09
     1.357009          0.12
     1.350151          3.63
     1.332820         22.89
     1.331564          8.41
     1.322081          1.59
     1.319508          3.40
     1.314931          0.82
     1.306191          3.98
     1.303317          5.87
     1.284578          2.76
     1.275322         38.31
     1.269624         41.46
     1.268538         39.89
     1.246543          6.49
     1.246200          3.80
     1.244044          0.21
     1.240206         46.14
     1.232865          5.43
     1.232533          1.58
     1.214642          0.97
     1.201055          0.01
     1.194385         63.75
     1.194083         13.59
     1.182337          2.57
     1.180204          9.16
     1.165393          0.06
     1.157285          2.38
     1.155011          0.72
     1.154193          1.76
     1.146315          0.72
     1.143310          5.53
     1.137552          1.03
     1.137291          3.68
     1.133503          0.32
     1.123189         33.46
     1.122437         19.67
     1.116740          1.71
     1.106874         11.94
     1.095792          3.44
     1.088129         39.99
     1.085331          0.08
     1.078773          1.53
     1.076268         31.47
     1.075538          5.93
     1.074878          0.42
     1.070088         15.63
     1.069871         23.27
     1.068506          3.82
     1.066071          0.01
     1.061398          0.21
     1.049703          7.55
     1.043162          4.05
     1.040896          0.39
     1.036348          0.57
     1.035107          3.81
     1.034126          0.17
     1.025644          0.72
     1.020915         13.84
     1.017985         53.65
     1.017425          6.78
     1.012016         27.73
     1.011099          1.61
##############################################################################
###                            Comments                                    ###
##############################################################################
###   Diffraction pattern calculated by Match!. 
###   I/Ic calculated by Match!. 
##############################################################################


