##############################################################################
###               Crystal structure data exported by Match!                ###
##############################################################################
###                           Data published by:                           ###
###                                                                        ###
###               COD (Crystallography Open Database)
##############################################################################
data_1526248
_citation_journal_full    'Chemicke Zvesti'
_citation_journal_volume  '26'
_citation_page_first  '494'
_citation_page_last   '501'
_citation_year  '1972'
_citation_title  'The Crystal Structure of Cu (H2 P O3)2'
loop_
_publ_author_name
  'Handlovic M.'
_chemical_formula_sum  'Cu H4 O6 P2'
_chemical_name_common  'Cu (H2 P O3)2'
_symmetry_space_group_name_H-M 'P 1 21/c 1'
_space_group_IT_number 14
_space_group_crystal_system 'monoclinic'
loop_
_symmetry_equiv_pos_as_xyz
   'x, y, z'
   '-x, y+0.5, -z+0.5'
   '-x, -y, -z'
   'x, -y+0.5, z+0.5'
_cell_length_a        7.49000
_cell_length_b        9.93800
_cell_length_c        7.46500
_cell_angle_alpha    90.0000
_cell_angle_beta     99.6000
_cell_angle_gamma    90.0000
_cell_formula_units_Z 4
loop_
_atom_site_label
_atom_site_fract_x
_atom_site_fract_y
_atom_site_fract_z
_atom_site_occupancy
_atom_site_B_iso_or_equiv
p      0.450   0.433   0.269    1.00000    1.000
p      0.963   0.298   0.229    1.00000    1.000
cu      0.194   0.082   0.072    1.00000    1.000
o      0.356   0.374   0.083    1.00000    1.000
o      0.316   0.490   0.378    1.00000    1.000
o      0.102   0.188   0.251    1.00000    1.000
o      0.402   0.028   0.258    1.00000    1.000
o      0.973   0.388   0.394    1.00000    1.000
o      0.765   0.239   0.184    1.00000    1.000
h      0.522   0.302   0.347    1.00000    1.000
h      0.975   0.390   0.060    1.00000    1.000
_cell_measurement_wavelength    1.541874
_cell_measurement_radiation   'x-rays'
_exptl_crystal_density_diffrn    2.709000
loop_
_pd_peak_d_spacing
_pd_peak_intensity
     7.385110        113.44
     5.927610        212.17
     5.914842       1000.00
     4.969000         94.29
     4.951791        242.02
     4.341488          8.87
     4.122673        358.94
     4.118370         34.14
     3.748761         35.86
     3.692555          0.00
     3.680230         95.50
     3.537830         62.34
     3.462093        160.90
     3.461347          2.45
     3.451189        100.02
     3.339790          3.56
     3.332938         23.36
     3.094329          6.89
     3.022518        457.46
     3.020821         17.01
     2.963805         23.76
     2.959199        260.07
     2.957421         51.55
     2.954429         43.07
     2.886417        373.60
     2.881990        336.90
     2.865530         22.36
     2.855629         32.33
     2.744571         99.65
     2.731222          0.04
     2.630016          6.14
     2.626666         70.42
     2.484500          1.96
     2.475895          7.47
     2.465813          0.92
     2.462133         13.49
     2.461703          2.71
     2.420707         40.97
     2.418094          6.65
     2.413196        144.62
     2.389487          0.71
     2.389144         37.41
     2.382462         41.20
     2.381971          1.60
     2.354814          6.73
     2.354011          2.04
     2.345049         10.28
     2.278264          5.03
     2.263408          5.02
     2.261272          8.45
     2.224783         10.07
     2.208997        143.39
     2.205848         15.32
     2.205577          1.04
     2.200317          0.38
     2.199930         29.96
     2.171819         22.51
     2.171046          1.48
     2.170744         58.90
     2.167906         23.75
     2.166796          4.35
     2.162920        124.68
     2.061337          0.01
     2.059185         45.64
     2.034767         25.77
     2.033214         63.52
     2.031179         66.67
     2.030547          4.68
     2.027977         19.14
     2.027069          3.43
     1.975870          2.40
     1.975676          0.70
     1.971892          0.38
     1.971614          1.64
     1.950522          1.15
     1.938649          1.50
     1.937306         24.57
     1.919303          8.16
     1.918869         20.79
     1.904622          1.23
     1.877172         21.36
     1.874380          1.26
     1.870578         17.63
     1.869755         17.87
     1.868569         33.81
     1.859768         35.72
     1.847392         11.51
     1.846916          0.07
     1.846278          3.18
     1.844982          4.91
     1.844298          0.47
     1.840115          3.36
     1.837855          7.58
     1.833696          2.17
     1.828034          2.40
     1.815218         25.49
     1.809360          2.29
     1.778452          3.08
     1.777745         27.55
     1.776725          1.28
     1.773014         12.32
     1.768915         34.60
     1.750163          0.00
     1.748845          4.16
     1.748691          4.02
     1.748557         16.33
     1.746666         10.14
     1.745932          3.37
     1.745739         26.15
     1.745454          0.01
     1.741770          9.41
     1.741542          2.74
     1.733813          0.23
     1.732852          1.20
     1.731046          1.00
     1.730673          2.20
     1.725595          3.59
     1.719516         35.05
     1.698847          5.50
     1.694341          2.75
     1.673186          3.84
     1.672322         13.23
     1.669895          0.56
     1.666469          1.72
     1.657744          0.84
     1.657400          0.63
     1.656333         16.37
     1.656002         26.69
     1.655507          0.45
     1.651163         51.83
     1.650597          0.86
     1.649781          4.47
     1.631343         34.25
     1.628945         40.64
     1.625631         11.95
     1.624972         29.78
     1.621682          1.80
     1.616184          0.17
     1.615924          0.18
     1.612715         44.99
     1.608603         58.73
     1.608064          1.89
     1.590786          2.83
     1.589142         44.26
     1.588122          0.72
     1.587417         10.79
     1.566645          0.46
     1.563196          0.01
     1.560385          4.44
     1.549905          3.38
     1.547164          2.11
     1.546450          1.06
     1.546357         61.73
     1.544541         19.57
     1.544407          0.02
     1.534207          2.59
     1.531488          9.27
     1.531393          0.23
     1.530575         31.51
     1.529943          3.74
     1.529453          2.55
     1.528749          3.41
     1.526162          0.03
     1.511567          0.93
     1.511259          6.48
     1.511133         38.77
     1.510506          3.12
     1.510411          4.59
     1.500695          2.28
     1.500071         38.11
     1.491905         19.50
     1.488851          0.13
     1.482479          1.28
     1.482233          0.63
     1.481903          0.08
     1.481232          0.40
     1.480878         28.17
     1.480411          4.78
     1.479600         11.04
     1.478710          2.67
     1.477215          0.01
     1.477022         13.10
     1.475645          0.50
     1.460974          8.59
     1.460863          5.50
     1.460288          0.08
     1.457327          0.00
     1.456203          5.88
     1.447934          0.37
     1.447163          4.47
     1.446629         34.96
     1.443208          0.09
     1.441906          1.18
     1.440995          0.89
     1.438050         14.83
     1.433466          0.39
     1.432765          0.00
     1.429138          7.74
     1.427814          7.38
     1.416527          7.12
     1.415799          2.91
     1.413912          5.80
     1.413302          0.15
     1.411455          1.53
     1.403849          4.38
     1.401811         13.79
     1.398424          1.90
     1.394906          1.38
     1.394186          0.03
     1.394019          9.09
     1.389903          9.30
     1.385957         24.19
     1.377784          3.61
     1.375170         15.77
     1.374843          0.10
     1.374371         20.75
     1.374224         20.32
     1.374159          0.76
     1.372884          1.08
     1.372790          5.67
     1.372285          9.61
     1.368477          0.02
     1.365611          9.93
     1.364261          3.75
     1.362011          1.00
     1.360528          2.42
     1.360315          0.01
     1.357999          0.02
     1.357576          5.90
     1.356758         19.32
     1.355684          1.53
     1.355120          0.87
     1.352720         10.56
     1.351032          0.22
     1.350835          0.10
     1.350406         27.10
     1.350291          2.33
     1.349972          0.25
     1.349005          1.83
     1.347211          0.16
     1.345246          0.02
     1.333950         28.81
     1.330894          0.00
     1.328748          0.04
     1.328571          3.29
     1.327850          3.71
     1.327595          0.70
     1.325144          0.76
     1.324572          2.31
     1.323097          0.55
     1.321390          2.51
     1.321100         10.24
     1.320347          1.88
     1.319357          1.49
     1.318837         18.44
     1.318005          0.00
     1.317582          6.86
     1.315008          0.09
     1.313333          1.64
     1.311205          1.04
     1.302447          4.93
     1.300413          0.07
     1.297965          3.52
     1.292455          1.25
     1.290775         15.24
     1.290378          1.11
     1.289280          0.97
     1.287034          3.71
     1.284289          0.11
     1.282303          9.47
     1.279202         12.89
     1.271270          3.31
     1.269609          2.08
     1.266474          3.60
     1.266339          1.26
     1.265675          0.36
     1.264803          0.32
     1.264345          0.73
     1.258890          0.30
     1.257035          2.50
     1.255828          0.03
     1.254477          0.02
     1.253278         13.73
     1.250992          2.76
     1.250495          2.53
     1.250150          8.51
     1.249833          0.10
     1.249587          3.24
     1.249233          2.69
     1.248910          0.69
     1.247833          1.77
     1.244166          0.02
     1.242250          3.10
     1.238649          3.76
     1.238600         17.44
     1.237948          0.97
     1.236899          1.65
     1.234529         13.92
     1.232907          3.18
     1.231066          0.10
     1.230852          0.61
     1.230664         12.60
     1.229844          0.71
     1.229797          8.81
     1.228883         16.32
     1.228816          0.39
     1.227012          0.00
     1.226743         16.92
     1.225040          0.60
     1.224927          0.20
     1.223659          3.30
     1.222230          1.46
     1.222131          3.20
     1.221519          1.13
     1.221335          6.20
     1.220884          2.47
     1.220335          0.05
     1.219446          0.30
     1.219330          4.91
     1.217765          0.03
     1.217503          2.72
     1.213868          2.77
     1.210712          1.58
     1.210353          2.78
     1.209047          3.38
     1.208509          1.10
     1.206909          6.96
     1.206598          3.27
     1.206236          7.05
     1.203039          2.52
     1.199980          1.41
     1.199415          0.01
     1.198673          0.11
     1.198283          0.53
     1.197802          2.53
     1.196926          2.36
     1.196796          0.91
     1.196270          0.74
     1.196083          3.88
     1.195837          0.77
     1.194744          0.89
     1.194572          6.78
     1.194485          0.88
     1.193321          0.31
     1.192916         21.80
     1.191231          4.74
     1.190985          2.85
     1.185522          0.51
     1.182968          0.02
     1.179277          0.34
     1.178800          0.91
     1.177407          1.26
     1.177006          2.27
     1.176781          0.44
     1.175880          0.15
     1.175265          4.05
     1.174062          1.77
     1.173737          0.51
     1.173174          6.52
     1.173091          0.07
     1.172525          2.39
     1.172390         12.12
     1.172093          2.05
     1.171505          1.65
     1.171061          0.01
     1.170594          0.12
     1.168144          0.37
     1.164728         10.56
     1.159621          1.53
     1.154422          2.96
     1.154031          0.10
     1.153782          4.16
     1.153760          1.47
     1.153628          0.00
     1.153102          0.98
     1.152819          0.94
     1.150618          0.99
     1.150432          2.36
     1.150396          0.01
     1.150229          0.79
     1.149923          0.01
     1.149316          2.75
     1.148471          7.52
     1.147824          0.01
     1.147406          0.81
     1.146967          0.04
     1.146590         13.73
     1.144372          1.19
     1.139132          3.33
     1.138277          0.75
     1.138092          0.17
     1.137824          0.02
     1.134780          4.94
     1.133734          0.50
     1.131704          0.23
     1.130636          0.93
     1.129809          2.18
     1.128481          0.76
     1.128238          1.88
     1.127769          0.81
     1.127152          0.25
     1.126828          0.36
     1.125447          0.26
     1.124046          0.64
     1.122961          4.82
     1.122178          0.19
     1.115449          0.02
     1.113541          0.06
     1.113263          0.01
     1.113217          0.02
     1.112808          0.02
     1.112712          0.15
     1.112473          0.01
     1.112392          0.49
     1.111359          0.41
     1.110979          0.04
     1.110702          0.12
     1.110655          0.02
     1.110581          1.88
     1.110105          0.31
     1.109041          4.83
     1.109006          0.34
     1.108639          0.01
     1.108336          0.03
     1.108286          8.72
     1.108213          1.17
     1.107210          0.53
     1.105896          6.99
     1.105488          5.61
     1.104498         10.13
     1.103830          0.94
     1.103244          0.02
     1.102924          1.34
     1.102789          2.10
     1.102377          7.77
     1.100323          0.16
     1.100159          2.81
     1.099965          1.87
     1.095994          1.55
     1.094782          0.00
     1.094116          0.31
     1.092428          2.11
     1.092082          3.75
     1.092002          0.00
     1.086763          0.33
     1.085910          0.85
     1.085523          0.65
     1.085372          0.47
     1.085109          0.08
     1.084720          3.45
     1.084624          5.03
     1.084232          0.79
     1.084145          0.00
     1.084093          0.93
     1.083953          0.27
     1.083398          0.18
     1.081460          5.69
     1.079858          0.48
     1.076410          0.32
     1.070867          0.00
     1.069059          0.93
     1.068172          0.27
     1.067616          4.36
     1.067371          0.69
     1.066885          0.51
     1.065692          0.47
     1.065357          0.17
     1.065006          0.29
     1.064801         10.25
     1.064494          1.29
     1.064282          0.00
     1.063555          0.95
     1.063516          0.12
     1.062850          5.10
     1.062175          0.05
     1.062054          0.31
     1.061392          0.01
     1.060021          0.01
     1.057932          2.94
     1.057641          2.22
     1.057128          0.84
     1.056160          5.14
     1.055871          1.62
     1.055486          0.45
     1.055016          0.56
     1.054980          1.31
     1.054879          4.69
     1.054714          0.48
     1.054594          4.04
     1.054524          1.09
     1.054289          0.00
     1.054072          0.00
     1.053085          6.62
     1.052914          0.05
     1.052576          2.34
     1.049121          0.02
     1.046895          2.00
     1.046448          0.00
     1.046333          1.21
     1.046050          0.02
##############################################################################
###                            Comments                                    ###
##############################################################################
###   Diffraction pattern calculated by Match!. 
###   I/Ic calculated by Match!. 
##############################################################################


