##############################################################################
###               Crystal structure data exported by Match!                ###
##############################################################################
###                           Data published by:                           ###
###                                                                        ###
###               COD (Crystallography Open Database)
##############################################################################
data_4124029
_citation_journal_full    'Journal of the American Chemical Society'
_citation_journal_volume  '126'
_citation_page_first  '9769'
_citation_page_last   '9775'
_citation_year  '2004'
_citation_title  'Chemical evaluation of hypothetical uninodal zeolites'
loop_
_publ_author_name
  'Foster M.D.'
  'Friedrichs O.D.'
  'Bell R.G.'
  'Paz F.A.A.'
  'Klinowski J.'
_chemical_formula_sum  'O2 Si'
_chemical_name_common  'Silica'
_symmetry_space_group_name_H-M 'I a -3 d'
_space_group_IT_number 230
_space_group_crystal_system 'cubic'
loop_
_symmetry_equiv_pos_as_xyz
   'x, y, z'
   'x+0.5, y+0.5, z+0.5'
   '-y+0.25, x+0.75, z+0.25'
   '-y+0.75, x+0.25, z+0.75'
   '-x, -y+0.5, z'
   '-x+0.5, -y, z+0.5'
   'y+0.25, -x+0.25, z+0.75'
   'y+0.75, -x+0.75, z+0.25'
   'x+0.25, -z+0.25, y+0.75'
   'x+0.75, -z+0.75, y+0.25'
   'x, -y, -z+0.5'
   'x+0.5, -y+0.5, -z'
   'x+0.75, z+0.25, -y+0.25'
   'x+0.25, z+0.75, -y+0.75'
   'z+0.75, y+0.25, -x+0.25'
   'z+0.25, y+0.75, -x+0.75'
   '-x+0.5, y, -z'
   '-x, y+0.5, -z+0.5'
   '-z+0.25, y+0.75, x+0.25'
   '-z+0.75, y+0.25, x+0.75'
   'z, x, y'
   'z+0.5, x+0.5, y+0.5'
   'y, z, x'
   'y+0.5, z+0.5, x+0.5'
   '-y, -z+0.5, x'
   '-y+0.5, -z, x+0.5'
   'z, -x, -y+0.5'
   'z+0.5, -x+0.5, -y'
   '-y+0.5, z, -x'
   '-y, z+0.5, -x+0.5'
   '-z, -x+0.5, y'
   '-z+0.5, -x, y+0.5'
   '-z+0.5, x, -y'
   '-z, x+0.5, -y+0.5'
   'y, -z, -x+0.5'
   'y+0.5, -z+0.5, -x'
   'y+0.75, x+0.25, -z+0.25'
   'y+0.25, x+0.75, -z+0.75'
   '-y+0.25, -x+0.25, -z+0.25'
   '-y+0.75, -x+0.75, -z+0.75'
   '-x+0.25, z+0.75, y+0.25'
   '-x+0.75, z+0.25, y+0.75'
   '-x+0.25, -z+0.25, -y+0.25'
   '-x+0.75, -z+0.75, -y+0.75'
   'z+0.25, -y+0.25, x+0.75'
   'z+0.75, -y+0.75, x+0.25'
   '-z+0.25, -y+0.25, -x+0.25'
   '-z+0.75, -y+0.75, -x+0.75'
   '-x, -y, -z'
   '-x+0.5, -y+0.5, -z+0.5'
   'y+0.25, -x+0.75, -z+0.25'
   'y+0.75, -x+0.25, -z+0.75'
   'x, y+0.5, -z'
   'x+0.5, y, -z+0.5'
   '-y+0.25, x+0.25, -z+0.75'
   '-y+0.75, x+0.75, -z+0.25'
   '-x+0.25, z+0.25, -y+0.75'
   '-x+0.75, z+0.75, -y+0.25'
   '-x, y, z+0.5'
   '-x+0.5, y+0.5, z'
   '-x+0.75, -z+0.25, y+0.25'
   '-x+0.25, -z+0.75, y+0.75'
   '-z+0.75, -y+0.25, x+0.25'
   '-z+0.25, -y+0.75, x+0.75'
   'x+0.5, -y, z'
   'x, -y+0.5, z+0.5'
   'z+0.25, -y+0.75, -x+0.25'
   'z+0.75, -y+0.25, -x+0.75'
   '-z, -x, -y'
   '-z+0.5, -x+0.5, -y+0.5'
   '-y, -z, -x'
   '-y+0.5, -z+0.5, -x+0.5'
   'y, z+0.5, -x'
   'y+0.5, z, -x+0.5'
   '-z, x, y+0.5'
   '-z+0.5, x+0.5, y'
   'y+0.5, -z, x'
   'y, -z+0.5, x+0.5'
   'z, x+0.5, -y'
   'z+0.5, x, -y+0.5'
   'z+0.5, -x, y'
   'z, -x+0.5, y+0.5'
   '-y, z, x+0.5'
   '-y+0.5, z+0.5, x'
   '-y+0.75, -x+0.25, z+0.25'
   '-y+0.25, -x+0.75, z+0.75'
   'y+0.25, x+0.25, z+0.25'
   'y+0.75, x+0.75, z+0.75'
   'x+0.25, -z+0.75, -y+0.25'
   'x+0.75, -z+0.25, -y+0.75'
   'x+0.25, z+0.25, y+0.25'
   'x+0.75, z+0.75, y+0.75'
   '-z+0.25, y+0.25, -x+0.75'
   '-z+0.75, y+0.75, -x+0.25'
   'z+0.25, y+0.25, x+0.25'
   'z+0.75, y+0.75, x+0.75'
_cell_length_a       20.97788
_cell_length_b       20.97788
_cell_length_c       20.97788
_cell_angle_alpha    90.0000
_cell_angle_beta     90.0000
_cell_angle_gamma    90.0000
_cell_formula_units_Z 96
loop_
_atom_site_label
_atom_site_fract_x
_atom_site_fract_y
_atom_site_fract_z
_atom_site_occupancy
_atom_site_B_iso_or_equiv
o      0.423   0.207   0.125    1.00000    1.000
si      0.435   0.268   0.077    1.00000    1.000
o      0.467   0.375   0.717    1.00000    1.000
o      0.500   0.250   0.036    1.00000    1.000
_cell_measurement_wavelength    1.541874
_cell_measurement_radiation   'x-rays'
_exptl_crystal_density_diffrn    1.037000
loop_
_pd_peak_d_spacing
_pd_peak_intensity
     8.564184       1000.00
     7.416801        404.97
     5.606574        222.80
     5.244470         21.87
     4.690797         13.57
     4.472499          0.05
     4.282092         72.58
     4.114101         64.04
     3.830019          0.27
     3.708400          0.38
     3.403062         11.63
     3.316894          3.65
     3.236957         26.10
     3.093020          3.44
     3.027896          2.29
     2.966720          7.74
     2.909109          3.55
     2.854728         44.99
     2.803287         35.71
     2.664193         15.49
     2.622235          1.31
     2.582199         12.15
     2.543942          0.38
     2.507336          5.37
     2.472267         32.93
     2.438629         22.57
     2.375277          1.90
     2.345398          0.77
     2.288874         12.67
     2.262103          6.98
     2.236250          0.95
     2.211263          6.99
     2.163703         19.72
     2.141046          5.91
     2.119086          6.61
     2.097788          9.55
     2.077120          4.44
     2.057050          3.59
     2.037552          0.67
     2.000162          4.57
     1.964759         11.68
     1.947747          4.93
     1.931170          6.61
     1.915010          3.65
     1.899248         10.04
     1.868858          3.33
     1.854200          1.51
     1.812213          1.23
     1.798838          3.25
     1.785756          6.23
     1.772954          2.82
     1.760425          0.09
     1.748157          1.88
     1.736142         13.59
     1.724371          0.30
     1.712837          1.91
     1.701531          0.08
     1.690446          2.01
     1.668911          8.94
     1.658447          1.52
     1.648178          0.63
     1.638097          0.52
     1.628199          2.05
     1.618479          0.57
     1.608930          6.06
     1.590329          0.43
     1.581267          0.09
     1.572359          0.29
     1.563599          0.81
     1.554984          4.49
     1.546510          0.06
     1.538173          2.37
     1.521895          3.82
     1.513948          2.93
     1.506124          5.76
     1.498420          0.18
     1.490833          7.98
     1.483360          1.30
     1.475999          0.13
     1.461598          6.90
     1.454554          0.11
     1.447611          3.29
     1.440767          1.87
     1.434018          0.54
     1.427364          3.54
     1.420801          0.75
     1.407943          2.56
     1.401644          1.23
     1.395428          0.81
     1.383240         16.69
     1.377265          5.56
     1.371367          2.57
     1.365544          0.00
     1.359794          3.72
     1.348509          4.55
     1.342971          3.00
     1.337501          3.43
     1.332097          1.14
     1.326758          3.95
     1.316269          4.49
     1.311118          0.57
     1.306026          1.40
     1.300993          3.18
##############################################################################
###                            Comments                                    ###
##############################################################################
###   Diffraction pattern calculated by Match!. 
###   I/Ic calculated by Match!. 
##############################################################################


