##############################################################################
###               Crystal structure data exported by Match!                ###
##############################################################################
###                           Data published by:                           ###
###                                                                        ###
###               COD (Crystallography Open Database)
##############################################################################
data_9005032
_citation_journal_full    'European Journal of Mineralogy'
_citation_journal_volume  '2'
_citation_page_first  '63'
_citation_page_last   '77'
_citation_year  '1990'
_citation_title  'An X-ray study of the temperature dependence of the quartz structureSample: at T = 1012 K'
loop_
_publ_author_name
  'Kihara K.'
_chemical_formula_sum  'O2 Si'
_chemical_name_mineral  'Quartz'
_symmetry_space_group_name_H-M 'P 62 2 2'
_space_group_IT_number 180
_space_group_crystal_system 'hexagonal'
loop_
_symmetry_equiv_pos_as_xyz
   'x, y, z'
   'x-y, x, z+0.33333'
   '-y, x-y, z+0.66667'
   '-x, -y, z'
   '-x+y, -x, z+0.33333'
   'y, -x+y, z+0.66667'
   'x-y, -y, -z'
   '-x, -x+y, -z+0.33333'
   'y, x, -z+0.66667'
   '-y, -x, -z+0.66667'
   '-x+y, y, -z'
   'x, x-y, -z+0.33333'
_cell_length_a        4.99640
_cell_length_b        4.99640
_cell_length_c        5.45430
_cell_angle_alpha    90.0000
_cell_angle_beta     90.0000
_cell_angle_gamma   120.0000
loop_
_atom_site_label
_atom_site_fract_x
_atom_site_fract_y
_atom_site_fract_z
_atom_site_occupancy
_atom_site_B_iso_or_equiv
si      0.500   0.000   0.000    1.00000    1.890
o      0.415   0.207   0.167    1.00000    4.618
_cell_measurement_wavelength    1.541874
_cell_measurement_radiation   'x-rays'
_cell_measurement_temperature    1012.000000
_exptl_crystal_density_diffrn    2.538000
loop_
_pd_peak_d_spacing
_pd_peak_intensity
     4.327009        180.69
     3.389843       1000.00
     2.498200         37.46
     2.307146         20.58
     2.271292          2.19
     2.163505         35.09
     2.011071         25.28
     1.842126        144.42
     1.818100          0.41
     1.694922          9.80
     1.676151          4.55
     1.635456          0.72
     1.566548         58.29
     1.470019          2.42
     1.442336          8.29
     1.402581         30.33
     1.394406          9.06
     1.391888         54.93
     1.300527          5.28
     1.274999         15.35
     1.249100         15.34
     1.217579          0.54
     1.215902         15.26
     1.200096          4.12
     1.196891         16.43
     1.172061         23.91
     1.153573          0.70
     1.135646          0.33
     1.129948          0.19
     1.098444          8.81
     1.081752          6.67
     1.061085          0.22
     1.057764          7.36
     1.047308          8.96
     1.029534          7.29
##############################################################################
###                            Comments                                    ###
##############################################################################
###   Diffraction pattern calculated by Match!. 
###   I/Ic calculated by Match!. 
###   Space group has been derived from given symmetry operations. 
##############################################################################


