##############################################################################
###               Crystal structure data exported by Match!                ###
##############################################################################
###                           Data published by:                           ###
###                                                                        ###
###               COD (Crystallography Open Database)
##############################################################################
data_7226352
_citation_journal_full    'RSC Adv.'
_citation_year  '2016'
_citation_title  'Facile, ethylene glycol-promoted microwave-assisted solvothermalsynthesis of high-performance LiCoPO4as a high-voltage cathode materialfor lithium-ion batteries'
loop_
_publ_author_name
  'Ludwig Jennifer'
  'Marino Cyril'
  'Haering Dominik'
  'Stinner Christoph'
  'Nordlund Dennis'
  'Doeff Marca'
  'Gasteiger Hubert A.'
  'Nilges Tom'
_chemical_formula_sum  'Co Li O4 P'
_chemical_name_common  'Lithium cobalt phosphate'
_symmetry_space_group_name_H-M 'P n m a'
_space_group_IT_number 62
_space_group_crystal_system 'orthorhombic'
loop_
_symmetry_equiv_pos_as_xyz
   'x, y, z'
   '-x+0.5, -y, z+0.5'
   'x+0.5, -y+0.5, -z+0.5'
   '-x, y+0.5, -z'
   '-x, -y, -z'
   'x+0.5, y, -z+0.5'
   '-x+0.5, y+0.5, z+0.5'
   'x, -y+0.5, z'
_cell_length_a       10.18520
_cell_length_b        5.91140
_cell_length_c        4.69130
_cell_angle_alpha    90.0000
_cell_angle_beta     90.0000
_cell_angle_gamma    90.0000
_cell_formula_units_Z 4
loop_
_atom_site_label
_atom_site_fract_x
_atom_site_fract_y
_atom_site_fract_z
_atom_site_occupancy
_atom_site_B_iso_or_equiv
li      0.000   0.000   0.000    1.00000    1.097
co      0.221   0.250   0.520    1.00000    0.671
p      0.405   0.250   0.083    1.00000    0.552
o      0.405   0.250   0.758    1.00000    0.473
o      0.044   0.250   0.295    1.00000    0.157
o      0.334   0.046   0.215    1.00000    0.315
_cell_measurement_wavelength    1.541874
_cell_measurement_radiation   'x-rays'
_cell_measurement_temperature    298.000000
_exptl_crystal_density_diffrn    3.782000
_exptl_crystal_colour            'violet'
loop_
_pd_peak_d_spacing
_pd_peak_intensity
     5.092600        377.05
     4.261030        562.97
     3.858294        171.92
     3.674730         78.84
     3.456635        845.79
     3.450410        108.49
     2.979932         75.68
     2.955700        628.96
     2.750387        259.51
     2.556339         28.23
     2.546300          2.44
     2.493689       1000.00
     2.428617        256.69
     2.345650         14.81
     2.338575        178.20
     2.285816        100.07
     2.244711        109.28
     2.237906        138.75
     2.131978         81.14
     2.130515        125.59
     2.092946          0.87
     2.013492         49.93
     2.004314         40.07
     1.929846          0.76
     1.929147         31.04
     1.868495         14.51
     1.837699          2.22
     1.837365        134.53
     1.834559          1.23
     1.816718          7.72
     1.808179         18.32
     1.788490        148.77
     1.784183          0.42
     1.781614         90.16
     1.728317        349.57
     1.725205         83.28
     1.711100         46.20
     1.697533         15.19
     1.656118        145.38
     1.631593        162.30
     1.615905          0.96
     1.601807        219.83
     1.596246          1.40
     1.579372         21.89
     1.558350        102.61
     1.545655          4.07
     1.541051          3.11
     1.538023          0.44
     1.511766          0.48
     1.495383        100.67
     1.494878         18.01
     1.492472         12.45
     1.489966         13.51
     1.488469         32.92
     1.478892          2.87
     1.477850        130.37
     1.472031        133.48
     1.449257         27.77
     1.446606          0.41
     1.420343          7.03
     1.419296         10.27
     1.404512          1.13
     1.396256         25.51
     1.389720         61.73
     1.381039         64.14
     1.378744          5.68
     1.375194         24.89
     1.369679          2.47
     1.364360          4.30
     1.358486          0.97
     1.355842         21.91
     1.352839          1.31
     1.339427         33.40
     1.333971         90.48
     1.332539         16.06
     1.301822         30.22
     1.299921         43.12
     1.298007         21.06
     1.286098         60.10
     1.280201         31.61
     1.278169          2.78
     1.273150          0.09
     1.257641         73.92
     1.250375         15.63
     1.246845          3.08
     1.244611          0.94
     1.241058         14.13
     1.240416          6.84
     1.240333          5.46
     1.236461          4.20
     1.233217          7.39
     1.228707          0.01
     1.224910          5.63
     1.216147         23.96
     1.214790          0.99
     1.214309         37.73
     1.213978          5.79
     1.212419         21.44
     1.210270          0.01
     1.202995          1.58
     1.190944          5.94
     1.173330          0.69
     1.172825         16.58
     1.169288          0.37
     1.165126          5.80
     1.159117          2.68
     1.152212         31.25
     1.151652          6.84
     1.150137          0.51
     1.146434          5.95
     1.143777         31.20
     1.143133          0.36
     1.142908         12.47
     1.140674         18.46
     1.139240         15.47
     1.135682          2.08
     1.134577         16.30
     1.128967         12.37
     1.127713         18.49
     1.122356         19.66
     1.122127          4.35
     1.118953          4.29
     1.118444          0.49
     1.114630         14.47
     1.108544          0.88
     1.103830         35.15
     1.100132         19.17
     1.099430         29.28
     1.090139          5.79
     1.089552          0.29
     1.086180         52.19
     1.084441          0.58
     1.083948         35.52
     1.081561          4.06
     1.072327          5.97
     1.071847          0.60
     1.069358          0.75
     1.068164          0.58
     1.065989         16.07
     1.065636          0.06
     1.065258          7.15
     1.065230         15.99
     1.050966         18.26
     1.050129          8.23
     1.049741         10.08
     1.048371          4.23
     1.048345          4.31
     1.047340          0.29
     1.046473          0.00
     1.045366          2.00
     1.042615          0.01
     1.037944          1.67
     1.033774          6.83
     1.031029         54.07
     1.024061          8.47
     1.019262          2.57
     1.018520          2.49
     1.016400          9.68
     1.012404         42.31
     1.008136          0.14
     1.006746          8.80
##############################################################################
###                            Comments                                    ###
##############################################################################
###   Diffraction pattern calculated by Match!. 
###   I/Ic calculated by Match!. 
###   Space group has been derived from given symmetry operations. 
##############################################################################


