##############################################################################
###               Crystal structure data exported by Match!                ###
##############################################################################
###                           Data published by:                           ###
###                                                                        ###
###               COD (Crystallography Open Database)
##############################################################################
data_9005777
_citation_journal_full    'Physics and Chemistry of Minerals'
_citation_journal_volume  '10'
_citation_page_first  '217'
_citation_page_last   '229'
_citation_year  '1984'
_citation_title  'Polysynthetically-twinned structures of enstatite and wollastoniteSample: WO1T'
loop_
_publ_author_name
  'Ohashi Y.'
_chemical_formula_sum  'Ca O3 Si'
_chemical_name_mineral  'Wollastonite'
_symmetry_space_group_name_H-M 'P -1'
_space_group_IT_number 2
_space_group_crystal_system 'triclinic'
loop_
_symmetry_equiv_pos_as_xyz
   'x, y, z'
   '-x, -y, -z'
_cell_length_a        7.92580
_cell_length_b        7.32020
_cell_length_c        7.06530
_cell_angle_alpha    90.0550
_cell_angle_beta     95.2170
_cell_angle_gamma   103.4260
loop_
_atom_site_label
_atom_site_fract_x
_atom_site_fract_y
_atom_site_fract_z
_atom_site_occupancy
_atom_site_B_iso_or_equiv
ca      0.198   0.423   0.761    1.00000    1.000
ca      0.202   0.929   0.764    1.00000    1.000
ca      0.503   0.750   0.527    1.00000    1.000
si      0.185   0.388   0.268    1.00000    1.000
si      0.185   0.954   0.269    1.00000    1.000
si      0.397   0.724   0.056    1.00000    1.000
o      0.303   0.462   0.463    1.00000    1.000
o      0.301   0.939   0.464    1.00000    1.000
o      0.571   0.769   0.199    1.00000    1.000
o      0.983   0.374   0.266    1.00000    1.000
o      0.982   0.868   0.265    1.00000    1.000
o      0.402   0.727   0.830    1.00000    1.000
o      0.218   0.178   0.225    1.00000    1.000
o      0.271   0.870   0.094    1.00000    1.000
o      0.274   0.513   0.093    1.00000    1.000
_cell_measurement_wavelength    1.541874
_cell_measurement_radiation   'x-rays'
_exptl_crystal_density_diffrn    2.916000
loop_
_pd_peak_d_spacing
_pd_peak_intensity
     7.675267        146.52
     7.118295          1.05
     7.034205          6.83
     5.957833          0.04
     5.446232         24.77
     5.061394          1.40
     4.959449          3.99
     4.947353         32.43
     4.701063         21.11
     4.671611         50.23
     4.430513         27.81
     4.046316        133.08
     3.837633        316.40
     3.783952          8.76
     3.764630         71.25
     3.561435          1.68
     3.559147          1.97
     3.517102        401.25
     3.510011         44.97
     3.435294        113.09
     3.317287        561.48
     3.243512         32.12
     3.214080          2.40
     3.205329         19.26
     3.204213         17.23
     3.182135         83.96
     3.151237          0.07
     3.147012          0.26
     3.125053          8.09
     3.102503        149.03
     3.090300         79.65
     3.089617        407.76
     2.978916       1000.00
     2.974904        995.18
     2.959983          2.05
     2.922659         24.78
     2.919460         95.06
     2.797523         36.36
     2.796047         41.04
     2.744356         12.80
     2.723139         10.32
     2.723116         97.25
     2.691692          1.07
     2.687088          1.55
     2.678987         20.45
     2.609118         23.71
     2.558422        108.75
     2.530697         31.32
     2.528778         29.07
     2.518942          0.69
     2.480147          0.01
     2.479724        116.09
     2.477012        121.41
     2.473676        124.88
     2.473355          0.49
     2.432666          0.06
     2.426450          0.48
     2.379527         21.31
     2.372765          0.03
     2.353830         88.98
     2.350532         88.14
     2.344735         68.82
     2.336024         35.83
     2.335806         34.86
     2.335067         44.61
     2.303579          0.70
     2.303560        245.15
     2.294574          0.00
     2.281556         13.51
     2.279553         12.71
     2.268685          0.15
     2.263979          2.09
     2.246616          0.88
     2.242262         10.87
     2.232943          0.08
     2.229060          1.95
     2.222881          0.88
     2.215257         34.78
     2.212099          5.98
     2.211772         32.33
     2.197872          0.42
     2.188813          0.06
     2.185923          3.13
     2.185862        177.82
     2.182340        178.84
     2.180683          0.41
     2.167837         52.25
     2.161712          4.80
     2.143004          0.11
     2.138270          0.53
     2.130993          0.39
     2.089861         16.02
     2.086681         14.03
     2.066285          3.90
     2.065690         11.47
     2.040029          6.92
     2.023856         56.67
     2.023158         53.75
     2.013652          1.62
     2.013144          0.68
     2.006679          2.64
     1.994810          0.23
     1.988111          0.65
     1.985944          0.08
     1.982450         69.21
     1.978850          0.86
     1.977278          0.69
     1.975198          1.90
     1.971867          1.19
     1.949779          8.66
     1.946538          9.85
     1.944705          0.30
     1.940064         13.66
     1.938634         19.96
     1.937844         13.20
     1.936348          3.26
     1.922546         19.83
     1.922291          7.95
     1.918817         49.00
     1.896860          2.96
     1.894845         15.56
     1.893174          0.24
     1.892484          0.24
     1.891976         14.46
     1.884963          2.35
     1.882315         45.10
     1.879953         46.02
     1.877935         13.34
     1.861304         25.76
     1.855768          7.25
     1.855730         42.14
     1.854005         39.59
     1.835714          4.67
     1.830047        366.19
     1.824904          1.24
     1.820843          0.02
     1.815411          0.86
     1.808646         30.14
     1.803967         26.56
     1.796201         47.08
     1.795579         11.94
     1.793853         48.04
     1.790076          6.11
     1.786130          4.93
     1.783118         11.49
     1.780717          2.44
     1.780632         12.83
     1.779574          2.63
     1.771560          5.01
     1.770620          3.74
     1.770469         35.21
     1.758551        153.79
     1.755005          1.63
     1.752794          4.06
     1.750211         40.16
     1.749725          2.14
     1.738396          0.47
     1.734819          1.29
     1.734644          1.61
     1.723633        231.08
     1.717830          9.68
     1.717647         74.72
     1.716707         75.65
     1.716356          8.93
     1.715948          9.80
     1.711742          1.24
     1.699943          0.02
     1.698238         19.72
     1.698181         14.60
     1.693581          3.05
     1.690888          0.07
     1.687695          0.59
     1.687131          0.39
     1.682886         10.93
     1.680200          3.12
     1.676434         13.92
     1.672949          4.75
     1.670748         15.53
     1.665518          0.48
     1.662561         20.70
     1.658643          9.87
     1.658522          4.37
     1.657537          0.60
     1.653150          4.36
     1.652757          2.86
     1.650929          3.08
     1.649118          6.90
     1.644455          1.17
     1.629220          6.15
     1.626225          2.12
     1.624155         26.26
     1.623237          1.37
     1.622707         25.16
     1.622227          0.82
     1.621756          6.00
     1.614806          4.22
     1.609269         14.64
     1.607040         66.29
     1.605067          5.09
     1.604870         63.98
     1.603711          0.74
     1.602973          4.97
     1.602664         57.96
     1.602106         59.93
     1.595018          0.05
     1.592691          0.00
     1.591068          0.02
     1.589910          0.07
     1.587777          1.99
     1.587227          2.53
     1.580845          0.01
     1.578335          0.71
     1.575619         18.72
     1.573506         17.62
     1.570989          1.30
     1.570782          1.15
     1.567021         12.89
     1.564013         11.63
     1.562526         11.67
     1.558253          4.06
     1.557204          0.06
     1.554190          2.53
     1.553602          0.06
     1.551948         19.69
     1.551252         20.18
     1.546836          8.51
     1.546622          2.23
     1.545150          8.30
     1.544809          2.41
     1.541736          0.12
     1.538260         18.56
     1.536909         18.24
     1.535053         40.07
     1.529920          6.42
     1.528665         19.86
     1.528304         19.67
     1.521025          1.43
     1.519030         18.32
     1.518795         18.50
     1.517102         19.79
     1.514589          1.56
     1.510857          0.21
     1.506538          5.75
     1.491759          1.52
     1.491341          1.93
     1.490854          0.98
     1.489458         17.89
     1.487452         17.18
     1.484646          5.64
     1.482879          5.40
     1.479992         65.75
     1.478404         65.03
     1.476838          0.30
     1.475241          0.10
     1.473662         18.68
     1.473263          0.84
     1.471860          1.33
     1.471558          0.55
     1.471311         28.06
     1.471286         18.63
     1.469645          0.28
     1.462277          0.44
     1.462226         21.54
     1.461329         20.43
     1.459730          9.39
     1.459466          9.70
     1.457869         75.70
     1.452599          1.35
     1.449572          1.42
     1.449138          0.18
     1.446387          1.26
     1.444117          2.41
     1.443415          7.54
     1.441891          8.42
     1.441555          0.97
     1.439231          0.80
     1.433351         24.20
     1.433256          0.76
     1.433252          0.00
     1.432454         23.52
     1.430401          0.05
     1.430089          2.78
     1.429478         10.38
     1.428484         10.65
     1.423659          0.01
     1.423174          1.36
     1.421121          5.14
     1.421069          3.11
     1.420898          3.77
     1.416329          0.99
     1.413752          0.04
     1.413079          5.04
     1.412035          0.03
     1.407374          2.43
     1.406841          4.47
     1.404194          0.03
     1.403501          0.61
     1.402652          0.05
     1.402231          0.05
     1.401984          4.91
     1.401591          8.21
     1.398761         12.29
     1.398023         12.40
     1.397673          0.11
     1.394318          0.30
     1.393253          0.07
     1.389698         30.98
     1.389305          5.82
     1.389226          0.08
     1.388402          0.40
     1.386166          0.23
     1.385924          0.25
     1.379461          0.34
     1.376921          1.56
     1.376654          1.16
     1.375430          0.13
     1.375366          0.18
     1.374201          0.06
     1.373797         12.43
     1.372178         11.93
     1.372169          0.00
     1.370459          9.32
     1.368487          1.86
     1.367807          0.11
     1.363066         24.31
     1.362798          7.02
     1.361570         24.80
     1.361558          0.68
     1.361348          0.98
     1.360911         80.07
     1.355612          0.50
     1.353764          0.27
     1.353109          0.08
     1.353041          0.40
     1.352892         11.23
     1.348772          1.63
     1.347578          0.08
     1.346344          0.96
     1.346234          3.24
     1.346001         20.90
     1.345846          3.88
     1.344672         13.14
     1.344473          0.00
     1.343981          0.00
     1.343544          3.46
     1.343284         16.09
     1.341981          3.98
     1.339494         11.00
     1.339454         10.99
     1.334484          3.16
     1.333783          4.41
     1.330231         10.59
     1.330096          0.80
     1.328280          0.01
     1.326514          0.10
     1.326418          0.95
     1.325252          4.30
     1.324388          0.21
     1.323719          0.95
     1.323368          4.28
     1.321739          0.82
     1.318653          0.08
     1.317800          0.08
     1.317759          2.11
     1.316293          2.50
     1.313505          0.06
     1.313175          0.46
     1.311611          0.50
     1.311462          0.00
     1.309311          5.76
     1.308539          0.39
     1.304986          0.35
     1.304559          0.02
     1.303539          1.19
     1.303323          0.01
     1.303227          1.49
     1.302255          0.60
     1.302182          1.62
     1.299920          8.39
     1.299325          7.83
     1.299303          0.33
     1.298266          0.23
     1.297253          5.13
     1.291761          0.01
     1.288941          2.76
     1.288725          2.50
     1.287450         13.12
     1.286520          0.14
     1.286043          2.14
     1.285543          0.76
     1.285363         13.17
     1.284632          0.99
     1.284611          0.57
     1.282842          3.52
     1.282610          3.43
     1.279859         24.31
     1.279679          0.23
     1.279211          5.82
     1.278343          0.47
     1.276302          1.60
     1.272209          1.66
     1.270268          0.01
     1.269373          0.43
     1.268696         40.70
     1.267316         39.85
     1.267155          0.12
     1.266195          0.16
     1.266158          4.84
     1.265349          4.04
     1.264402          0.26
     1.264389          3.85
     1.263087          4.23
     1.261795          3.96
     1.261317          4.21
     1.259471          1.06
     1.258696          0.99
     1.257438          0.30
     1.257234          4.93
     1.254877          5.58
     1.252795          2.25
     1.247631          0.54
     1.247302          0.65
     1.246541          0.25
     1.245428          0.27
     1.243869          3.83
     1.243757          0.10
     1.243536          0.05
     1.243453          3.30
     1.242394          0.15
     1.241080          0.30
     1.240405          1.96
     1.240073          2.81
     1.239862         23.81
     1.239756          0.03
     1.238506          0.20
     1.238307          2.03
     1.237683          4.74
     1.236838          0.27
     1.236678          2.21
     1.235369          2.19
     1.235239          1.53
     1.234291          0.74
     1.232464          0.00
     1.232029          5.22
     1.231852          0.40
     1.229401          3.32
     1.229231          4.41
     1.228727          3.73
     1.227770          0.37
     1.226303          1.14
     1.225710          0.55
     1.225584          0.13
     1.222405          0.05
     1.221212          0.05
     1.218657          0.08
     1.216333          1.82
     1.216060          1.36
     1.214774          1.04
     1.214520          0.36
     1.214445          0.11
     1.214187         12.01
     1.214130          5.68
     1.214034          0.13
     1.213435         24.48
     1.213225         23.86
     1.212964          0.36
     1.212719          1.14
     1.212196          1.97
     1.210837          0.12
     1.210552          4.68
     1.209372          0.90
     1.204792          1.49
     1.200613          2.04
     1.200000          0.09
     1.199992          0.08
     1.199824          0.07
     1.198205          0.02
     1.197317          3.57
     1.197273          3.48
     1.196577          3.03
     1.195508          2.13
     1.195488          3.92
     1.194982          0.27
     1.193741          1.13
     1.191567          3.38
     1.191385          0.76
     1.189764          3.34
     1.188939          1.31
     1.188541          3.18
     1.188425          1.11
     1.187145         17.76
     1.186696          1.13
     1.186680          4.32
     1.186382         16.68
     1.186173          4.15
     1.186048          1.13
     1.185353          0.06
     1.184737          0.10
##############################################################################
###                            Comments                                    ###
##############################################################################
###   Diffraction pattern calculated by Match!. 
###   I/Ic calculated by Match!. 
###   Space group has been derived from given symmetry operations. 
##############################################################################


