##############################################################################
###               Crystal structure data exported by Match!                ###
##############################################################################
###                           Data published by:                           ###
###                                                                        ###
###               COD (Crystallography Open Database)
##############################################################################
data_9008093
_citation_journal_full    'Zeitschrift fur Kristallographie'
_citation_journal_volume  '117'
_citation_page_first  '467'
_citation_page_last   '469'
_citation_year  '1962'
_citation_title  'Die struktur des hochquarzes Note: sample is at T = 650 deg C, under thefalse assumption that it is twinned'
loop_
_publ_author_name
  'Arnold H.'
_chemical_formula_sum  'O2 Si'
_chemical_name_mineral  'Quartz'
_symmetry_space_group_name_H-M 'P 31 2 1'
_space_group_IT_number 152
_space_group_crystal_system 'trigonal (hexagonal axes)'
loop_
_symmetry_equiv_pos_as_xyz
   'x, y, z'
   '-y, x-y, z+0.33333'
   '-x+y, -x, z+0.66667'
   'x-y, -y, -z+0.66667'
   '-x, -x+y, -z+0.33333'
   'y, x, -z'
_cell_length_a        5.01000
_cell_length_b        5.01000
_cell_length_c        5.47000
_cell_angle_alpha    90.0000
_cell_angle_beta     90.0000
_cell_angle_gamma   120.0000
loop_
_atom_site_label
_atom_site_fract_x
_atom_site_fract_y
_atom_site_fract_z
_atom_site_occupancy
_atom_site_B_iso_or_equiv
si      0.467   0.000   0.333    1.00000    0.265
o      0.427   0.187   0.129    1.00000    0.899
_cell_measurement_wavelength    1.541874
_cell_measurement_radiation   'x-rays'
_cell_measurement_temperature    923.100000
_exptl_crystal_density_diffrn    2.517000
loop_
_pd_peak_d_spacing
_pd_peak_intensity
     4.338787        215.23
     3.399275       1000.00
     2.505000         78.20
     2.313684         21.98
     2.277536          5.00
     2.169394         34.42
     2.016588         67.96
     1.847272        152.20
     1.823333          1.35
     1.699638         16.82
     1.680936         13.56
     1.639908         14.92
     1.570833         89.36
     1.474171          6.59
     1.446262          9.72
     1.406457         62.81
     1.398216         17.47
     1.395805         74.91
     1.304252         19.19
     1.278514         28.87
     1.252500         16.05
     1.220903          6.59
     1.219297         28.07
     1.203363         14.05
     1.200293         28.96
     1.175260         37.22
     1.156842          3.70
     1.138768         12.75
     1.133092          3.36
     1.101462         16.25
     1.084697         10.26
     1.063979          3.10
     1.060799         18.15
     1.050256         13.30
     1.032388         12.60
     1.008294          3.21
##############################################################################
###                            Comments                                    ###
##############################################################################
###   Diffraction pattern calculated by Match!. 
###   I/Ic calculated by Match!. 
###   Space group has been derived from given symmetry operations. 
##############################################################################


