##############################################################################
###               Crystal structure data exported by Match!                ###
##############################################################################
###                           Data published by:                           ###
###                                                                        ###
###               COD (Crystallography Open Database)
##############################################################################
data_2201129
_citation_journal_full    'Acta Crystallographica Section E'
_citation_journal_volume  '58(4)'
_citation_page_first  'i29'
_citation_page_last   'i31'
_citation_year  '2002'
_citation_title  'Redetermination of copper(II) hydrogenphosphite dihydrate'
loop_
_publ_author_name
  'El Bali Brahim'
  'Massa Werner'
_chemical_formula_sum  'Cu H5 O5 P'
_chemical_name_common  'copper(II) hydrogenphosphite dihydrate'
_symmetry_space_group_name_H-M 'P 21 21 21'
_space_group_IT_number 19
_space_group_crystal_system 'orthorhombic'
loop_
_symmetry_equiv_pos_as_xyz
   'x, y, z'
   '-x+0.5, -y, z+0.5'
   'x+0.5, -y+0.5, -z'
   '-x, y+0.5, -z+0.5'
_cell_length_a        6.69060
_cell_length_b        7.37270
_cell_length_c        8.95520
_cell_angle_alpha    90.0000
_cell_angle_beta     90.0000
_cell_angle_gamma    90.0000
_cell_formula_units_Z 4
loop_
_atom_site_label
_atom_site_fract_x
_atom_site_fract_y
_atom_site_fract_z
_atom_site_occupancy
_atom_site_B_iso_or_equiv
cu      0.268   0.029   0.096    1.00000    0.737
p      0.011   -0.319   0.148    1.00000    0.648
o      -0.023   -0.389   0.307    1.00000    0.940
o      0.215   -0.225   0.142    1.00000    0.910
o      -0.004   -0.471   0.031    1.00000    0.930
o      0.299   0.285   0.032    1.00000    1.136
h      0.184   0.350   0.033    1.00000    2.447
h      0.353   0.304   -0.054    1.00000    2.447
o      0.455   0.052   0.313    1.00000    1.429
h      0.512   -0.042   0.324    1.00000    1.658
h      0.549   0.123   0.325    1.00000    1.658
h      -0.113   -0.208   0.119    1.00000    0.631
_cell_measurement_wavelength    1.541874
_cell_measurement_radiation   'x-rays'
_cell_measurement_temperature    193.000000
_exptl_crystal_density_diffrn    2.700000
_exptl_crystal_colour            'light blue'
loop_
_pd_peak_d_spacing
_pd_peak_intensity
     5.691887          0.97
     5.359883        177.57
     4.954606       1000.00
     4.477600         31.69
     4.335313         91.42
     3.827093        171.31
     3.721167        762.47
     3.686350         88.13
     3.408833        243.14
     3.345300          8.70
     3.322014        126.16
     3.228709         79.35
     3.133784         10.83
     3.046371         27.03
     3.037329        119.91
     2.884064        128.74
     2.845944         17.08
     2.766883        106.10
     2.726052          6.58
     2.679941        110.26
     2.618866        108.19
     2.556868         63.12
     2.518706        492.46
     2.477303         22.28
     2.387630         64.37
     2.369945         15.23
     2.319857          7.67
     2.306866        120.76
     2.238800         55.32
     2.233937         55.00
     2.227272         13.32
     2.191840          4.53
     2.167656          1.71
     2.164100         26.53
     2.154397         82.63
     2.142211         38.13
     2.134673         53.75
     2.132105          7.03
     2.123092         51.05
     2.076493          0.58
     2.050704         53.96
     2.040186        101.01
     1.996283         92.02
     1.980566          0.23
     1.933836         29.42
     1.926897         25.47
     1.913547          4.21
     1.908168         23.97
     1.906333         11.00
     1.897296         27.17
     1.866272          2.75
     1.860584         20.50
     1.843175         29.17
     1.839779         48.10
     1.825323         57.37
     1.811284         33.49
     1.805332         10.14
     1.804025         42.18
     1.786628         16.16
     1.776978         11.75
     1.755413         56.35
     1.742994         58.47
     1.740421          0.25
     1.736372         15.98
     1.730122          4.63
     1.704416         17.09
     1.684366         22.25
     1.672650         79.25
     1.661007         81.67
     1.655019         12.05
     1.651665         61.74
     1.651535         17.17
     1.650345          3.51
     1.644215         12.93
     1.631198          4.12
     1.624147         16.55
     1.614355         38.69
     1.610965          3.82
     1.607752          7.05
     1.606595         33.72
     1.604792          2.07
     1.588746         26.42
     1.580021         15.13
     1.578979          2.74
     1.568297         11.68
     1.566892          1.51
     1.566204         29.66
     1.549494         14.00
     1.544942         38.25
     1.543967          0.95
     1.532661         23.65
     1.526910          0.52
     1.523185         13.93
     1.518664          0.80
     1.501619         23.80
     1.492533          0.04
     1.483408         36.04
     1.462859          7.82
     1.459186          0.79
     1.456727          5.02
     1.454949          7.22
     1.452246         16.38
     1.451437         12.78
     1.447436         10.73
     1.445104         28.77
     1.442032         16.17
     1.439983          6.28
     1.431420         13.20
     1.429098         37.50
     1.422972          5.31
     1.421721         13.61
     1.420756          0.19
     1.419998         35.31
     1.414709          2.14
     1.403206         24.11
     1.400551          0.52
     1.396463          0.00
     1.391841         20.72
     1.383442         20.20
     1.382765          0.04
     1.372068          2.70
     1.370838          0.80
     1.366570          8.24
     1.363026         33.12
     1.356760         10.16
     1.354783         11.06
     1.354218         36.37
     1.349281          2.19
     1.340313          7.29
     1.339971         15.36
     1.334221         15.60
     1.329041          8.45
     1.328421         10.84
     1.323427          1.09
     1.322041          0.47
     1.321199         29.89
     1.318373          8.45
     1.316610         17.44
     1.309433         18.56
     1.305902          6.28
     1.302607         11.42
     1.296964         22.31
     1.291899         37.31
     1.284492          4.67
     1.282862          7.20
     1.282092         14.01
     1.278434         22.77
     1.275698          8.53
     1.263136         11.29
     1.261455         11.32
     1.260479          6.70
     1.259353          2.09
     1.257816          1.60
     1.256550          1.10
     1.254687         13.61
     1.253122         14.18
     1.245589         10.20
     1.240389          1.56
     1.238688          2.20
     1.238652          6.79
     1.231440          3.62
     1.230003          6.78
     1.229511          0.78
     1.228783          2.55
     1.226970          2.31
     1.223199         22.07
     1.222455          0.13
     1.221049          1.37
     1.218563          4.69
     1.217377          3.61
     1.214139          3.54
     1.211097         12.60
     1.210944          5.62
     1.208602          0.00
     1.208570          0.03
     1.205989          0.51
     1.204640          0.04
     1.199591          7.24
     1.199135          3.83
     1.197712          6.33
     1.194919          0.28
     1.193815          6.10
     1.191970          2.55
     1.189353          1.32
     1.186066          6.66
     1.184972          0.55
     1.179527          1.87
     1.176459          2.78
     1.175621          3.48
     1.175206          7.81
     1.166813          4.02
     1.165215          8.92
     1.160319          4.53
     1.159929          3.71
     1.159116          4.84
     1.155630          0.24
     1.153433          0.00
     1.148595          2.10
     1.144067          4.71
     1.143983          0.65
     1.142881          4.36
     1.138377          8.65
     1.137242         10.94
     1.136706          0.97
     1.136693          8.61
     1.136278          7.08
     1.134905          5.26
     1.134768          0.01
     1.122249          1.21
     1.120237          0.89
     1.119400          0.03
     1.118791          8.07
     1.116968          0.46
     1.115100          0.02
     1.113636          0.25
     1.113075          7.25
     1.109701          0.12
     1.107338         11.42
     1.106716         15.51
     1.106554          1.01
     1.106101          1.39
     1.104054          3.77
     1.102560          2.44
     1.101145          2.57
     1.097759          4.91
     1.097341          4.08
     1.096597          7.54
     1.095920          3.77
     1.094522          3.68
     1.094298          3.77
     1.093513          4.78
     1.091879          3.97
     1.083828          3.28
     1.082848          3.66
     1.082050          0.53
     1.078020          6.28
     1.077689          3.03
     1.077199          2.55
     1.076236          1.38
     1.075907          4.05
     1.075018          3.00
     1.074625          0.60
     1.073822          1.24
     1.071977          3.29
     1.071106          0.61
     1.070581         12.13
     1.068547          7.30
     1.067337          5.38
     1.066052         12.95
     1.063503          1.31
     1.062599          2.79
     1.061546          0.53
     1.060822          5.15
     1.059835          4.03
     1.057638         20.09
     1.052507          3.91
     1.050969          0.58
     1.050711          4.63
     1.048961          1.40
     1.046433          1.26
     1.046033          0.56
     1.044595          2.09
     1.040556          7.42
     1.040430          0.57
     1.038247          0.15
     1.038238          0.70
     1.037186          1.84
     1.036302          4.68
     1.034265          5.65
     1.033478          4.54
     1.029338          5.89
     1.029066          4.85
     1.025352          0.15
     1.025261          0.63
     1.020093          1.07
     1.018755          5.44
     1.018701          1.52
     1.017941          1.14
     1.016166          0.53
     1.015457          0.00
     1.014351          8.98
     1.013927          3.25
     1.013431          6.28
     1.013244          0.00
     1.012443          2.46
     1.011375          6.91
     1.008991          3.12
     1.007094          0.18
     1.006650          7.45
##############################################################################
###                            Comments                                    ###
##############################################################################
###   Diffraction pattern calculated by Match!. 
###   I/Ic calculated by Match!. 
##############################################################################


