##############################################################################
###               Crystal structure data exported by Match!                ###
##############################################################################
###                           Data published by:                           ###
###                                                                        ###
###               COD (Crystallography Open Database)
##############################################################################
data_9000095
_citation_journal_full    'American Mineralogist'
_citation_journal_volume  '46'
_citation_page_first  '1283'
_citation_page_last   '1316'
_citation_year  '1961'
_citation_title  'Crystallographic tables for the rhombohedral carbonates'
loop_
_publ_author_name
  'Graf D. L.'
_chemical_formula_sum  'C Ca O3'
_chemical_name_mineral  'Calcite'
_symmetry_space_group_name_H-M 'R -3 c'
_space_group_IT_number 167
_space_group_crystal_system 'trigonal (hexagonal axes)'
loop_
_symmetry_equiv_pos_as_xyz
   'x, y, z'
   'x+0.66667, y+0.33333, z+0.33333'
   'x+0.33333, y+0.66667, z+0.66667'
   '-y, x-y, z'
   '-y+0.66667, x-y+0.33333, z+0.33333'
   '-y+0.33333, x-y+0.66667, z+0.66667'
   '-x+y, -x, z'
   '-x+y+0.66667, -x+0.33333, z+0.33333'
   '-x+y+0.33333, -x+0.66667, z+0.66667'
   'x-y, -y, -z+0.5'
   'x-y+0.66667, -y+0.33333, -z+0.83333'
   'x-y+0.33333, -y+0.66667, -z+0.16667'
   '-x, -x+y, -z+0.5'
   '-x+0.66667, -x+y+0.33333, -z+0.83333'
   '-x+0.33333, -x+y+0.66667, -z+0.16667'
   'y, x, -z+0.5'
   'y+0.66667, x+0.33333, -z+0.83333'
   'y+0.33333, x+0.66667, -z+0.16667'
   '-x, -y, -z'
   '-x+0.66667, -y+0.33333, -z+0.33333'
   '-x+0.33333, -y+0.66667, -z+0.66667'
   'y, -x+y, -z'
   'y+0.66667, -x+y+0.33333, -z+0.33333'
   'y+0.33333, -x+y+0.66667, -z+0.66667'
   'x-y, x, -z'
   'x-y+0.66667, x+0.33333, -z+0.33333'
   'x-y+0.33333, x+0.66667, -z+0.66667'
   '-x+y, y, z+0.5'
   '-x+y+0.66667, y+0.33333, z+0.83333'
   '-x+y+0.33333, y+0.66667, z+0.16667'
   'x, x-y, z+0.5'
   'x+0.66667, x-y+0.33333, z+0.83333'
   'x+0.33333, x-y+0.66667, z+0.16667'
   '-y, -x, z+0.5'
   '-y+0.66667, -x+0.33333, z+0.83333'
   '-y+0.33333, -x+0.66667, z+0.16667'
_cell_length_a        4.99000
_cell_length_b        4.99000
_cell_length_c       17.06150
_cell_angle_alpha    90.0000
_cell_angle_beta     90.0000
_cell_angle_gamma   120.0000
_cell_formula_units_Z 6
loop_
_atom_site_label
_atom_site_fract_x
_atom_site_fract_y
_atom_site_fract_z
_atom_site_occupancy
_atom_site_B_iso_or_equiv
ca      0.000   0.000   0.000    1.00000    1.000
c      0.000   0.000   0.250    1.00000    1.000
o      0.258   0.000   0.250    1.00000    1.000
_cell_measurement_wavelength    1.541874
_cell_measurement_radiation   'x-rays'
_exptl_crystal_density_diffrn    2.710000
loop_
_pd_peak_d_spacing
_pd_peak_intensity
     3.855045         84.79
     3.035713       1000.00
     2.843583         22.72
     2.495000        138.24
     2.284799        200.82
     2.094589        148.84
     1.927522         62.73
     1.912473        198.31
     1.875433        210.93
     1.625927         37.20
     1.604220         99.22
     1.586946          9.07
     1.525347         54.49
     1.517856         24.89
     1.509442         31.73
     1.473277         22.86
     1.440489         69.65
     1.421792         39.55
     1.356862         15.05
     1.339035         23.76
     1.296744         28.12
     1.285015          4.88
     1.247500         11.18
     1.235297         20.29
     1.218529          0.37
     1.195613          0.08
     1.186902          5.12
     1.179854         26.04
     1.172931          3.06
     1.153870         48.58
     1.142399         24.35
     1.130830          0.06
     1.124730          6.01
     1.075552          0.05
     1.071806          0.03
     1.061484          9.28
     1.047294         32.13
     1.044860         34.58
     1.042103          0.19
     1.035291         15.75
     1.034958          5.32
     1.023076          4.16
     1.011904         34.45
##############################################################################
###                            Comments                                    ###
##############################################################################
###   Diffraction pattern calculated by Match!. 
###   I/Ic calculated by Match!. 
##############################################################################


