##############################################################################
###               Crystal structure data exported by Match!                ###
##############################################################################
###                           Data published by:                           ###
###                                                                        ###
###               COD (Crystallography Open Database)
##############################################################################
data_2310620
_citation_journal_full    'Acta Crystallographica (1,1948-23,1967)'
_citation_journal_volume  '11'
_citation_page_first  '361'
_citation_page_last   '364'
_citation_year  '1958'
_citation_title  'The crystal structure of the anhydrous sulfates of copper and zinc'
loop_
_publ_author_name
  'Kokkoros P.A.'
  'Rentzeperis P.J.'
_chemical_formula_sum  'Cu O4 S'
_chemical_name_common  'Copper(II) sulfate'
_symmetry_space_group_name_H-M 'P n m a'
_space_group_IT_number 62
_space_group_crystal_system 'orthorhombic'
loop_
_symmetry_equiv_pos_as_xyz
   'x, y, z'
   '-x+0.5, -y, z+0.5'
   'x+0.5, -y+0.5, -z+0.5'
   '-x, y+0.5, -z'
   '-x, -y, -z'
   'x+0.5, y, -z+0.5'
   '-x+0.5, y+0.5, z+0.5'
   'x, -y+0.5, z'
_cell_length_a        8.39000
_cell_length_b        6.69000
_cell_length_c        4.83000
_cell_angle_alpha    90.0000
_cell_angle_beta     90.0000
_cell_angle_gamma    90.0000
_cell_formula_units_Z 4
loop_
_atom_site_label
_atom_site_fract_x
_atom_site_fract_y
_atom_site_fract_z
_atom_site_occupancy
_atom_site_B_iso_or_equiv
o      0.367   0.250   0.444    1.00000    1.000
o      0.130   0.053   0.305    1.00000    1.000
cu      0.000   0.000   0.000    1.00000    1.000
o      0.130   0.250   0.736    1.00000    1.000
s      0.186   0.250   0.444    1.00000    1.000
_cell_measurement_wavelength    1.541874
_cell_measurement_radiation   'x-rays'
_exptl_crystal_density_diffrn    3.910000
loop_
_pd_peak_d_spacing
_pd_peak_intensity
     4.195000        230.24
     4.185917       1000.00
     3.916044         33.01
     3.554066        263.35
     3.548538        839.32
     3.345000         62.10
     3.167193         46.20
     2.862603         14.52
     2.615348        723.10
     2.613143        717.18
     2.420233        594.23
     2.415000        138.70
     2.320771         92.08
     2.299834        156.44
     2.275881          0.19
     2.192589          1.42
     2.097500          0.81
     2.092959        118.45
     2.024627         20.28
     2.001435         35.61
     1.997489         20.28
     1.969075          0.25
     1.968133         70.65
     1.960808        222.56
     1.958022         29.52
     1.923918          4.07
     1.906784         10.19
     1.848979          0.00
     1.827826          1.97
     1.823374          1.61
     1.777033        134.12
     1.774269        346.99
     1.763200          8.90
     1.672500        168.26
     1.667740          1.06
     1.639982          1.66
     1.607981          3.16
     1.603978          4.75
     1.585069         26.00
     1.583597        126.32
     1.581151        109.36
     1.565310         32.66
     1.553579         27.04
     1.553116        110.92
     1.542369         19.52
     1.541012          9.92
     1.538758          3.23
     1.527852          9.75
     1.526094          3.20
     1.503102          0.65
     1.478955          0.39
     1.466541          9.37
     1.456709         18.00
     1.432388        218.76
     1.431301        133.48
     1.429495        125.98
     1.413639          0.00
     1.398333         47.81
     1.395306         29.83
     1.378014          6.38
     1.375926        132.61
     1.374963         60.41
     1.371040         16.42
     1.368753          1.29
     1.365914          1.20
     1.356863         10.97
     1.349679          6.87
     1.343176          0.00
     1.316896          1.04
     1.307674          8.85
     1.306571         35.60
     1.305348         25.81
     1.291954          4.23
     1.291157          6.85
     1.290141         11.18
     1.289830         11.56
     1.289439          4.47
     1.287762         28.99
     1.277143          4.08
     1.274731         14.11
     1.274475         23.06
     1.274130          0.19
     1.262231          1.04
     1.254488          4.31
     1.246441         19.24
     1.246400          5.41
     1.233901          0.03
     1.232529          0.84
     1.210116         34.31
     1.207500         20.32
     1.195185          2.76
     1.193135          7.86
     1.190792         17.25
     1.184689          7.80
     1.182846          0.43
     1.176557          0.04
     1.172256          8.93
     1.170970          0.02
     1.163289         27.07
     1.161738          5.44
     1.160386         16.48
     1.159152          1.22
     1.150584          0.13
     1.150481         10.27
     1.149917         43.94
     1.148980         40.23
     1.146092          4.11
     1.144608          0.13
     1.143315          1.68
     1.137940         16.11
     1.135764         10.66
     1.128032          4.67
     1.127324          3.18
     1.125498         22.69
     1.117960          2.67
     1.115000          0.00
     1.108582          1.02
     1.108258          7.43
     1.098742         12.60
     1.098472          1.46
     1.097435         41.16
     1.096295         35.05
     1.093668          2.39
     1.079647          3.73
     1.077586         27.79
     1.077432         36.28
     1.073618          0.35
     1.072782         30.99
     1.071413         32.75
     1.063606          2.98
     1.063524          1.77
     1.060054          0.80
     1.055731          2.67
     1.053425          2.69
     1.052297          0.46
     1.051729          0.02
     1.048750          8.88
     1.047261          1.87
     1.046479          7.32
     1.042826          4.02
     1.036096          0.02
     1.033907          0.25
     1.031391          4.61
     1.030309          2.98
     1.029365          0.48
     1.029032          4.25
     1.024869          0.01
     1.022432          4.93
     1.022254          3.43
     1.022036          2.32
     1.021378          0.05
     1.015043          4.44
     1.013050          0.81
     1.012698          9.61
     1.012313          6.88
     1.006777          0.48
##############################################################################
###                            Comments                                    ###
##############################################################################
###   Diffraction pattern calculated by Match!. 
###   I/Ic calculated by Match!. 
###   Space group has been derived from given symmetry operations. 
##############################################################################


