##############################################################################
###               Crystal structure data exported by Match!                ###
##############################################################################
###                           Data published by:                           ###
###                                                                        ###
###               COD (Crystallography Open Database)
##############################################################################
data_9000802
_citation_journal_full    'American Mineralogist'
_citation_journal_volume  '66'
_citation_page_first  '324'
_citation_page_last   '333'
_citation_year  '1981'
_citation_title  'High-pressure crystal structure and compressibility of coesiteP = 1 atm isotropic refinement'
loop_
_publ_author_name
  'Levien L.'
  'Prewitt C. T.'
_chemical_formula_sum  'O2 Si'
_chemical_name_mineral  'Coesite'
_symmetry_space_group_name_H-M 'C 1 2/c 1'
_space_group_IT_number 15
_space_group_crystal_system 'monoclinic'
loop_
_symmetry_equiv_pos_as_xyz
   'x, y, z'
   'x+0.5, y+0.5, z'
   '-x, y, -z+0.5'
   '-x+0.5, y+0.5, -z+0.5'
   '-x, -y, -z'
   '-x+0.5, -y+0.5, -z'
   'x, -y, z+0.5'
   'x+0.5, -y+0.5, z+0.5'
_cell_length_a        7.13560
_cell_length_b       12.36920
_cell_length_c        7.17360
_cell_angle_alpha    90.0000
_cell_angle_beta    120.3400
_cell_angle_gamma    90.0000
loop_
_atom_site_label
_atom_site_fract_x
_atom_site_fract_y
_atom_site_fract_z
_atom_site_occupancy
_atom_site_B_iso_or_equiv
si      0.140   0.108   0.072    1.00000    0.409
si      0.507   0.158   0.541    1.00000    0.400
o      0.000   0.000   0.000    1.00000    0.709
o      0.500   0.116   0.750    1.00000    0.679
o      0.266   0.123   0.940    1.00000    0.790
o      0.311   0.104   0.328    1.00000    0.810
o      0.017   0.212   0.478    1.00000    0.750
_cell_measurement_wavelength    1.541874
_cell_measurement_radiation   'x-rays'
_cell_measurement_pressure       100.000000
_exptl_crystal_density_diffrn    2.921000
loop_
_pd_peak_d_spacing
_pd_peak_intensity
     6.184600         57.72
     5.547358         10.43
     5.512854          5.36
     4.375478         49.22
     3.444874         62.90
     3.434330        137.69
     3.426095        399.70
     3.420122        700.08
     3.103271        993.83
     3.095563        852.02
     3.092300       1000.00
     3.090334        845.17
     3.079165        170.03
     2.773679         21.10
     2.768171         75.63
     2.766420         62.30
     2.756427        142.76
     2.706117         91.95
     2.694069        308.28
     2.336710         87.01
     2.305011         36.64
     2.298883          8.08
     2.298022          2.84
     2.295550         27.30
     2.292619         64.11
     2.291483         41.93
     2.195630         20.71
     2.190455         36.04
     2.187739         24.32
     2.181928         59.29
     2.178555          1.62
     2.061533          0.17
     2.040502          4.82
     2.039104         21.68
     2.036445          0.87
     2.034858         27.46
     2.031295         90.48
     2.030509          7.85
     2.029720          0.32
     2.025079         28.07
     1.957599          2.16
     1.955948          0.58
     1.870327          8.34
     1.859739         16.55
     1.849119         75.74
     1.837618         99.28
     1.793393        178.39
     1.784962        109.73
     1.783828          1.79
     1.779436          0.21
     1.722437          0.78
     1.717165         10.04
     1.716552         32.55
     1.715856         45.62
     1.713958         33.62
     1.713048        115.78
     1.710061         32.37
     1.706707          7.92
     1.704139          6.74
     1.702314          8.51
     1.699841          0.61
     1.699493         20.04
     1.698492         64.43
     1.697304          2.43
     1.697115        127.03
     1.696843          3.22
     1.691693          7.34
     1.655518        170.72
     1.648161          6.74
     1.589917          3.85
     1.587841         12.95
     1.587023          1.15
     1.585111         38.05
     1.582679         41.39
     1.582154         51.73
     1.579733         36.40
     1.577759          8.30
     1.551635         44.70
     1.551371         42.22
     1.549338          0.57
     1.547782         19.03
     1.546150         46.23
     1.545167         35.76
     1.543303          4.44
     1.542310         79.46
     1.539583         35.99
     1.504993          0.92
     1.501939          5.46
     1.501475          5.48
     1.500079         26.68
     1.496439          0.45
     1.493987         16.45
     1.458493          1.01
     1.418655         20.49
     1.416173         10.75
     1.413970          0.59
     1.412509          0.25
     1.411469         12.19
     1.410058          8.09
     1.409884         14.18
     1.408609         13.45
     1.408501         25.36
     1.408346          1.13
     1.407034         18.72
     1.405397          2.10
     1.404159         33.00
     1.388256          0.01
     1.386839          3.64
     1.384086          1.00
     1.383896          1.10
     1.383210          4.37
     1.381738          6.84
     1.379603          3.03
     1.378213          0.00
     1.353059          0.82
     1.348937         85.38
     1.347290         15.90
     1.347034         62.03
     1.345166        113.06
     1.344478         34.15
     1.343638         45.35
     1.341872          1.34
     1.341851          0.17
     1.341358         67.25
     1.340719         13.82
     1.339414         46.83
     1.339206         26.72
     1.337101          4.79
     1.336933         37.94
     1.324167         77.75
     1.319887         60.82
     1.316150          9.16
     1.312943         51.55
     1.293903          7.92
     1.291426         18.58
     1.287925         10.35
     1.286889          3.77
     1.285717         41.22
     1.285116         46.34
     1.283368         84.67
     1.282077          3.37
     1.281832         13.00
     1.278669          0.13
     1.241545          0.05
     1.239723          5.74
     1.237755         12.39
     1.237389         45.19
     1.236920          8.86
     1.235149          5.87
     1.235105         18.14
     1.233686          1.58
     1.233550         41.83
     1.232715         14.51
     1.232278          0.02
     1.230970          1.69
     1.230049          7.52
     1.229071         14.25
     1.227980          0.14
     1.227153         40.25
     1.225605         19.39
     1.214130         12.51
     1.212949          0.37
     1.190049         35.41
     1.188609          1.85
     1.187189         26.69
     1.186715         31.29
     1.185863          0.27
     1.185026         34.16
     1.184165         46.61
     1.184128         31.26
     1.184009          0.91
     1.181634          0.02
     1.180872          0.68
     1.180135         31.95
     1.174309          2.90
     1.173054          6.93
     1.171996          0.01
     1.171030         11.26
     1.169823          0.14
     1.168673          1.90
     1.168355          8.25
     1.167825         21.10
     1.167118         18.93
     1.166776          0.00
     1.166522          2.00
     1.165923          5.69
     1.163877         17.06
     1.153696          0.15
     1.152506          0.01
     1.149496          5.49
     1.149442          3.33
     1.149327          0.06
     1.149011          2.62
     1.148618          0.03
     1.148291          4.90
     1.147775          8.46
     1.146857          1.10
     1.146309          2.06
     1.145741          3.06
     1.144777          0.70
     1.143800          2.71
     1.142032          6.73
     1.140041         15.87
     1.132663         38.21
     1.125614         10.93
     1.111094          0.63
     1.109967          4.05
     1.109504         21.27
     1.109472          8.04
     1.108970          0.59
     1.106472          2.56
     1.106460          3.95
     1.106184          1.04
     1.105921         12.70
     1.105092         14.13
     1.103698          8.88
     1.102571         16.26
     1.101427          0.28
     1.097815          0.01
     1.096789          0.71
     1.095863         13.34
     1.095227          0.34
     1.094418          8.18
     1.094147          3.83
     1.093870          0.00
     1.092285          2.15
     1.091445          3.49
     1.090964          0.23
     1.090954          0.21
     1.089475         20.06
     1.089278          1.06
     1.076880          3.20
     1.076469         20.67
     1.074946          1.64
     1.074466         24.35
     1.074351         10.46
     1.074000          8.50
     1.073825         21.78
     1.072979          2.43
     1.072224          8.47
     1.072081          1.61
     1.072061          0.09
     1.070690          0.13
     1.070229          1.22
     1.069663          0.90
     1.068072          3.04
     1.061473          4.15
     1.060946          6.32
     1.047688         25.67
     1.047634          0.10
     1.043954          5.89
     1.042049          0.50
     1.034424          0.05
     1.031854          1.46
     1.030767          0.12
     1.030111          6.45
     1.026388         22.98
     1.020376          0.04
     1.020251          0.08
     1.019552          0.13
     1.019306          3.32
     1.018222          4.79
     1.017786          0.31
     1.017565         16.95
     1.017429         25.08
     1.016977          2.79
     1.016771          5.61
     1.016462         25.23
     1.015733          8.32
     1.015648         15.99
     1.015348          6.91
     1.015255          6.75
     1.014860         16.29
     1.014159          1.99
     1.014018          3.42
     1.013510          7.67
     1.013494          0.43
     1.013226          0.58
     1.013007          8.22
     1.012956          0.02
     1.012858          0.43
     1.012539          0.76
     1.011744          9.01
     1.010544          2.69
     1.010430         10.92
     1.009549          2.75
     1.007853          7.30
##############################################################################
###                            Comments                                    ###
##############################################################################
###   Diffraction pattern calculated by Match!. 
###   I/Ic calculated by Match!. 
###   Space group has been derived from given symmetry operations. 
##############################################################################


