##############################################################################
###               Crystal structure data exported by Match!                ###
##############################################################################
###                           Data published by:                           ###
###                                                                        ###
###               COD (Crystallography Open Database)
##############################################################################
data_1534781
_citation_journal_full    'Journal of the Ceramic Association, Japan'
_citation_journal_volume  '92(1064)'
_citation_page_first  '219'
_citation_page_last   '223'
_citation_year  '1984'
_citation_title  'High Temperature Structures of the Rutile-Type Oxides, TiO~2~ and SnO~2~'
loop_
_publ_author_name
  'Seki H.'
  'Ishizawa N.'
  'Mizutani N.'
  'Kato M.'
_chemical_formula_sum  'O2 Ti'
_chemical_name_common  'Titanium(IV) oxide'
_symmetry_space_group_name_H-M 'P 42/m n m'
_space_group_IT_number 136
_space_group_crystal_system 'tetragonal'
loop_
_symmetry_equiv_pos_as_xyz
   'x, y, z'
   '-y+0.5, x+0.5, z+0.5'
   '-x, -y, z'
   'y+0.5, -x+0.5, z+0.5'
   'x+0.5, -y+0.5, -z+0.5'
   '-x+0.5, y+0.5, -z+0.5'
   'y, x, -z'
   '-y, -x, -z'
   '-x, -y, -z'
   'y+0.5, -x+0.5, -z+0.5'
   'x, y, -z'
   '-y+0.5, x+0.5, -z+0.5'
   '-x+0.5, y+0.5, z+0.5'
   'x+0.5, -y+0.5, z+0.5'
   '-y, -x, z'
   'y, x, z'
_cell_length_a        4.61070
_cell_length_b        4.61070
_cell_length_c        2.97320
_cell_angle_alpha    90.0000
_cell_angle_beta     90.0000
_cell_angle_gamma    90.0000
_cell_formula_units_Z 2
loop_
_atom_site_label
_atom_site_fract_x
_atom_site_fract_y
_atom_site_fract_z
_atom_site_occupancy
_atom_site_B_iso_or_equiv
o      0.305   0.305   0.000    1.00000    1.000
ti      0.000   0.000   0.000    1.00000    1.000
_cell_measurement_wavelength    1.541874
_cell_measurement_radiation   'x-rays'
_exptl_crystal_density_diffrn    4.197000
loop_
_pd_peak_d_spacing
_pd_peak_intensity
     3.260257       1000.00
     2.498727        443.63
     2.305350         65.59
     2.196858        180.01
     2.061968         64.53
     1.694374        518.15
     1.630129        152.17
     1.486600         70.92
     1.458031         70.38
     1.429385          5.42
     1.365282        173.59
     1.352621         84.80
     1.309096          9.26
     1.278778          1.91
     1.249363         17.54
     1.205877          9.92
     1.174731         33.92
     1.152675         23.03
     1.118259          8.25
     1.098429         55.15
     1.086752         29.96
     1.046675         51.52
     1.040937         38.87
     1.030984         22.71
     1.020705          0.44
##############################################################################
###                            Comments                                    ###
##############################################################################
###   Diffraction pattern calculated by Match!. 
###   I/Ic calculated by Match!. 
###   Space group has been derived from given symmetry operations. 
##############################################################################


