##############################################################################
###               Crystal structure data exported by Match!                ###
##############################################################################
###                           Data published by:                           ###
###                                                                        ###
###               COD (Crystallography Open Database)
##############################################################################
data_9016627
_citation_journal_full    'Journal of Physics: Condensed Matter'
_citation_journal_volume  '20'
_citation_page_first  '472206'
_citation_page_last   '472208'
_citation_year  '2008'
_citation_title  'On the crystal and magnetic ordering structures of clinoatacamite,gamma-Cu2(OD)3Cl, a proposed valence bond solid'
loop_
_publ_author_name
  'Wills A. S.'
  'Henry J. Y.'
_chemical_formula_sum  'Cl Cu2 D3 O3'
_chemical_name_mineral  'Clinoatacamite'
_symmetry_space_group_name_H-M 'P 1 21/n 1'
_space_group_IT_number 14
_space_group_crystal_system 'monoclinic'
loop_
_symmetry_equiv_pos_as_xyz
   'x, y, z'
   '-x+0.5, y+0.5, -z+0.5'
   '-x, -y, -z'
   'x+0.5, -y+0.5, z+0.5'
_cell_length_a        6.15175
_cell_length_b        6.81606
_cell_length_c        9.10541
_cell_angle_alpha    90.0000
_cell_angle_beta     99.8394
_cell_angle_gamma    90.0000
loop_
_atom_site_label
_atom_site_fract_x
_atom_site_fract_y
_atom_site_fract_z
_atom_site_occupancy
_atom_site_B_iso_or_equiv
cu      0.241   0.766   0.251    1.00000    0.933
cu      0.500   0.000   0.000    1.00000    0.933
cu      0.000   0.000   0.000    1.00000    0.933
o      0.079   0.019   0.223    1.00000    0.985
o      0.259   0.820   0.040    1.00000    0.985
o      0.310   0.209   0.050    1.00000    0.985
h      0.720   0.685   0.021    1.00000    1.800
h      0.762   0.292   0.027    1.00000    1.800
h      0.553   0.522   0.231    1.00000    1.800
cl      0.612   0.996   0.307    1.00000    0.985
_cell_measurement_wavelength    1.541874
_cell_measurement_radiation   'x-rays'
_exptl_crystal_density_diffrn    3.824000
loop_
_pd_peak_d_spacing
_pd_peak_intensity
     5.475174        494.81
     5.427348       1000.00
     4.666151        245.88
     4.529405         23.45
     4.485737         11.87
     4.268564          0.83
     3.850342          0.54
     3.747086          2.23
     3.412539         53.10
     3.408030         26.07
     3.185904          7.34
     3.030631          6.42
     3.001351         21.95
     2.970655         12.09
     2.893313        216.16
     2.884557        127.00
     2.770784        420.40
     2.769234         11.21
     2.752133        420.83
     2.738510        369.13
     2.737587         88.63
     2.713674        171.49
     2.656465          0.08
     2.578175          1.41
     2.540349          0.01
     2.536768          6.54
     2.516624          0.94
     2.386475          0.42
     2.360844          0.84
     2.333075        171.07
     2.265550          7.22
     2.264702        624.03
     2.247805          1.48
     2.242869        297.04
     2.211280         22.14
     2.207346          0.05
     2.202489         25.13
     2.201764         17.25
     2.134282          0.31
     2.132157          3.64
     2.130490          0.05
     2.127469          1.16
     2.120510          1.22
     2.098513          5.57
     2.047474         43.19
     2.042735          0.45
     2.026860          0.09
     2.024477         94.63
     1.971100          0.48
     1.968494          2.81
     1.960914          0.74
     1.937110          6.06
     1.927779          0.57
     1.925171          4.26
     1.915045          7.00
     1.902600         53.15
     1.894962          1.12
     1.893515          1.64
     1.890057         97.99
     1.879091          0.62
     1.873543          0.58
     1.866745          2.05
     1.832547          4.30
     1.825058         31.65
     1.818329        161.01
     1.817890          2.36
     1.809116         56.33
     1.806569         88.97
     1.784852          0.26
     1.762955          0.95
     1.755091         12.42
     1.748332          0.61
     1.747164         17.21
     1.746273          0.32
     1.737961          5.58
     1.735180         18.66
     1.721973          2.74
     1.707328          1.45
     1.706269        265.00
     1.704015        129.34
     1.703738          2.04
     1.686425          0.33
     1.680959          6.31
     1.674085          6.28
     1.671441          1.31
     1.661254         38.47
     1.645653         16.47
     1.640422          7.74
     1.629293         29.60
     1.627718          0.02
     1.627037         22.02
     1.626161         27.01
     1.623345          0.26
     1.608884         13.91
     1.601560          9.62
     1.600624         10.74
     1.599689          0.34
     1.596175         11.37
     1.596154          0.61
     1.592952          4.59
     1.591945          9.21
     1.587690          1.11
     1.564146          4.84
     1.555384          2.95
     1.545837          0.25
     1.520991          1.12
     1.518154          3.20
     1.516403          0.07
     1.516332          6.21
     1.515315         31.86
     1.509802          0.59
     1.502899          1.07
     1.500676         64.23
     1.500220         50.85
     1.499284         12.50
     1.495246          0.17
     1.489588          0.14
     1.488885          0.62
     1.487202         43.59
     1.485567          4.36
     1.485327          1.01
     1.483415          1.28
     1.481928         52.41
     1.480530          4.12
     1.480147          0.03
     1.479202          3.15
     1.477138          0.54
     1.472335         15.29
     1.467142         29.05
     1.460516          0.15
     1.458693          0.69
     1.446656         38.52
     1.445994          1.03
     1.442279         23.25
     1.439143          1.47
     1.423601          5.39
     1.422855          0.17
     1.421920         14.77
     1.414985         14.12
     1.414041          0.45
     1.411035          0.28
     1.410993          2.59
     1.408786         17.42
     1.408132          6.57
     1.401810          1.26
     1.385392         68.25
     1.384617          6.21
     1.382924          0.42
     1.378687         10.37
     1.377018          1.81
     1.376066         63.49
     1.369255         70.35
     1.368798          8.64
     1.368793         36.84
     1.366554          2.15
     1.359938          6.61
     1.356837         65.73
     1.354248          2.58
     1.351597         16.86
     1.347966         16.41
     1.347742         18.32
     1.346361          0.38
     1.342001          2.35
     1.339890          0.40
     1.338697          0.15
     1.337299          0.34
     1.333855          0.88
     1.332773          0.14
     1.329990          0.97
     1.328233          0.29
     1.326356          1.54
     1.322827          0.04
     1.309757         16.65
     1.308514          0.69
     1.304312          0.38
     1.302591          1.57
     1.299672         10.07
     1.295819          3.12
     1.292824          0.25
     1.290307          3.41
     1.289544          0.54
     1.289087          2.83
     1.288357          2.38
     1.287995          0.85
     1.285351          1.30
     1.283447          0.02
     1.276671          0.23
     1.273591         18.47
     1.270174          0.73
     1.269342         14.14
     1.268384         62.66
     1.262289          1.14
     1.261241          0.11
     1.260656          0.89
     1.259566         12.46
     1.259378          0.62
     1.258312         30.23
     1.249029          0.02
     1.248114         23.36
     1.245851          6.72
     1.245515         15.07
     1.243370         17.47
     1.243230          0.16
     1.240484          3.08
     1.240413         24.14
     1.239591         23.70
     1.239203         16.24
     1.237403          0.14
     1.235604          2.12
     1.235582          0.84
     1.232508          0.28
     1.229540          3.43
     1.226082          0.56
     1.225704          0.11
     1.224631          4.45
     1.220437          0.84
     1.220287          0.09
     1.219890          0.25
     1.217657          0.89
     1.216210          8.45
     1.215567          0.13
     1.214365          0.06
     1.212673          2.06
     1.210011          0.19
     1.204864          1.05
     1.199616          0.07
     1.198653          0.00
     1.196923          2.24
     1.194354          2.05
     1.193924          0.11
     1.193523          0.68
     1.193237          0.29
     1.190202          1.02
     1.189710          1.03
     1.187749          0.09
     1.184505          0.47
     1.184363          1.07
     1.183747          3.21
     1.181985          0.09
     1.180422          0.22
     1.178884          1.12
     1.177614          1.10
     1.177060          0.60
     1.177019          0.01
     1.174985         10.80
     1.172458          0.79
     1.171050          0.01
     1.168861          0.01
     1.166538         11.34
     1.165667         19.42
     1.164918          0.00
     1.163278          0.00
     1.159893          0.14
     1.157907          2.02
     1.156572          3.66
     1.152075          0.03
     1.152044          0.21
     1.149820          0.14
     1.148781          3.68
     1.142500          5.21
     1.142148          0.77
     1.141697          1.80
     1.137513          4.77
     1.136010          3.16
     1.135858          0.11
     1.134714          0.49
     1.132775          1.62
     1.132351         12.28
     1.131425          1.03
     1.130045          0.91
     1.129300         11.86
     1.128137          0.10
     1.127011          1.55
     1.125614          0.12
     1.123903          0.39
     1.122520          0.90
     1.121494          0.37
     1.121434          5.98
     1.121194          0.04
     1.120475         11.99
     1.116569          0.86
     1.116283          9.90
     1.115617          0.00
     1.114075          5.91
     1.112572          6.37
     1.112320          5.10
     1.110819          2.86
     1.108288         11.42
     1.108130          0.00
     1.108003          0.36
     1.106818          0.15
     1.106702          4.77
     1.106557          0.11
     1.106028          0.78
     1.105640         14.69
     1.103770          8.74
     1.103673          0.02
     1.102035         11.75
     1.101244         13.17
     1.100967          0.11
     1.100882         15.17
     1.100768          0.01
     1.099813          0.56
     1.099696          0.49
     1.099510          2.86
     1.095035          0.71
     1.092171          0.01
     1.091591          1.94
     1.091309          0.22
     1.088774          0.26
     1.088170          0.04
     1.085470          2.27
     1.081351          0.09
     1.081171          0.91
     1.080468          0.40
     1.079463          0.18
     1.077673          0.17
     1.076094          1.53
     1.075599          1.30
     1.071809          0.29
     1.069824          0.05
     1.069535          1.01
     1.067141         20.46
     1.066535          0.00
     1.066079          1.43
     1.065245          0.41
     1.063822          2.23
     1.063734         18.36
     1.062045          5.57
     1.061968          1.78
     1.060255         18.39
     1.060094          4.62
     1.059119          0.07
     1.058963          0.13
     1.058953          0.12
     1.058014          9.66
     1.057517          1.36
     1.057183          3.82
     1.056995          2.11
     1.056408          0.20
     1.050334          2.59
     1.049806          0.01
     1.049382          0.00
     1.049256          0.80
     1.049004          1.48
     1.047819          2.37
     1.045133          0.15
     1.043680          0.42
     1.042540         11.79
     1.040590          0.82
     1.039380          0.41
     1.037746          0.04
     1.035408         10.36
     1.033398         11.47
     1.027447          0.01
     1.025186          0.09
     1.024264          0.85
     1.023737         14.45
     1.023604          0.16
     1.021757          1.04
     1.021732          0.43
     1.021368          0.22
     1.021284          0.32
     1.020236          0.47
     1.020141         11.14
     1.018077          0.74
     1.017544          0.01
     1.016847          0.67
     1.013951          0.11
     1.013762          0.19
     1.013458          0.49
     1.013430          0.84
     1.013224          0.86
     1.012793          0.43
     1.012540          0.08
     1.012382          0.10
     1.012350          0.95
     1.012239         25.36
     1.012155          1.84
     1.011691          6.59
     1.010210          0.42
     1.007387          0.52
     1.007202          0.20
     1.006693          0.05
##############################################################################
###                            Comments                                    ###
##############################################################################
###   Synthetic
###   Diffraction pattern calculated by Match!. 
###   I/Ic calculated by Match!. 
##############################################################################


