##############################################################################
###               Crystal structure data exported by Match!                ###
##############################################################################

data_9004358
_citation_journal_full    'The Canadian Mineralogist'
_citation_journal_volume  '33'
_citation_page_first  '633'
_citation_page_last   '639'
_citation_year  '1995'
_citation_title  'Claringbullite: A Cu oxysalt with Cu in trigonal-prismatic coordination'
loop_
_publ_author_name
  'Burns P. C.'
  'Cooper M. A.'
  'Hawthorne F. C.'
_chemical_formula_sum  'Cl Cu1.995 H3 O3'
_chemical_name_mineral  'Claringbullite'
_symmetry_space_group_name_H-M 'P 63/m m c'
_space_group_IT_number 194
_space_group_crystal_system 'hexagonal'
loop_
_symmetry_equiv_pos_as_xyz
   'x, y, z'
   'x-y, x, z+0.5'
   '-y, x-y, z'
   '-x, -y, z+0.5'
   '-x+y, -x, z'
   'y, -x+y, z+0.5'
   'x-y, -y, -z'
   '-x, -x+y, -z'
   'y, x, -z'
   '-y, -x, -z+0.5'
   '-x+y, y, -z+0.5'
   'x, x-y, -z+0.5'
   '-x, -y, -z'
   '-x+y, -x, -z+0.5'
   'y, -x+y, -z'
   'x, y, -z+0.5'
   'x-y, x, -z'
   '-y, x-y, -z+0.5'
   '-x+y, y, z'
   'x, x-y, z'
   '-y, -x, z'
   'y, x, z+0.5'
   'x-y, -y, z+0.5'
   '-x, -x+y, z+0.5'
_cell_length_a        6.67330
_cell_length_b        6.67330
_cell_length_c        9.18500
_cell_angle_alpha    90.0000
_cell_angle_beta     90.0000
_cell_angle_gamma   120.0000
loop_
_atom_site_label
_atom_site_fract_x
_atom_site_fract_y
_atom_site_fract_z
_atom_site_occupancy
_atom_site_B_iso_or_equiv
cu      0.500   0.000   0.000    1.00000    1.144
cu      0.371   0.742   0.750    0.33000    0.694
h      0.125   0.875   0.868    1.00000    1.579
cl      0.667   0.333   0.750    1.00000    1.887
cl      0.000   0.000   0.750    1.00000    3.439
o      0.202   0.798   0.908    1.00000    0.805
_cell_measurement_wavelength    1.541874
_cell_measurement_radiation   'x-rays'
_exptl_crystal_density_diffrn    3.999000
loop_
_pd_peak_d_spacing
_pd_peak_intensity
     5.779247        609.29
     4.891525        300.46
     4.592500        187.07
     3.595498        176.59
     3.336650         32.20
     2.889624        331.34
     2.756433         17.18
     2.705464          9.26
     2.699406       1000.00
     2.445763        724.22
     2.296250        174.70
     2.184350         11.29
     2.133976         89.46
     2.125082          3.07
     2.101463         87.68
     1.972589         22.90
     1.926416          0.79
     1.891597         30.67
     1.885394          4.56
     1.797749        310.01
     1.778180          1.15
     1.776457        202.20
     1.750687          9.10
     1.668325        275.43
     1.630508         19.50
     1.602875         27.87
     1.582650         97.79
     1.579012          0.01
     1.568064         68.19
     1.550256          0.48
     1.530833          0.00
     1.513349         41.88
     1.479799          4.27
     1.475836          8.52
     1.444812         46.77
     1.427262          3.10
     1.420040          0.21
     1.405919          0.47
     1.391384         64.18
     1.378216        104.24
     1.352732        129.65
     1.349703        135.87
     1.329442          0.21
     1.325850         19.48
     1.314335         10.04
     1.312249          0.61
     1.306630          0.41
     1.279577          5.84
     1.273828         19.02
     1.261135          0.14
     1.253625         24.54
     1.249413          3.78
     1.222881         47.11
     1.216668         13.36
     1.216115         43.98
     1.207751          0.04
     1.198499         19.89
     1.194737          0.39
     1.166084          0.31
     1.155849          0.77
     1.148196          5.83
     1.148125         17.71
     1.146805          0.08
     1.135645          0.57
     1.127943          6.63
     1.126118          8.17
     1.124805          0.34
     1.120894          4.24
     1.112217          0.42
     1.107055          4.77
     1.105393          0.04
     1.092175         37.83
     1.085651          1.77
     1.084535          0.51
     1.084475          0.96
     1.081356          0.13
     1.080968          7.90
     1.075081          0.02
     1.066988         26.16
     1.062541         45.66
     1.050731         36.24
     1.039704          1.17
     1.037983          6.17
     1.032430          5.15
     1.031418          6.77
     1.028683          0.86
     1.016291         11.53
     1.015325          0.00
     1.012446          3.62
##############################################################################
###                            Comments                                    ###
##############################################################################
###   Diffraction pattern calculated by Match!. 
###   I/Ic calculated by Match!. 
###   Space group has been derived from given symmetry operations. 
##############################################################################


