##############################################################################
###               Crystal structure data exported by Match!                ###
##############################################################################

data_9014716
_citation_journal_full    'Monatshefte fur Chemie'
_citation_journal_volume  '115'
_citation_page_first  '725'
_citation_page_last   '730'
_citation_year  '1984'
_citation_title  'Verfeinerung der Kristallstruktur von Kupfer(II)-hydroxichlorid, Cu(OH)Cl'
loop_
_publ_author_name
  'Effenberger H.'
_chemical_formula_sum  'Cl Cu H O'
_chemical_name_mineral  'Belloite'
_symmetry_space_group_name_H-M 'P 1 21/a 1'
_space_group_IT_number 14
_space_group_crystal_system 'monoclinic'
loop_
_symmetry_equiv_pos_as_xyz
   'x, y, z'
   '-x+0.5, y+0.5, -z'
   '-x, -y, -z'
   'x+0.5, -y+0.5, z'
_cell_length_a        5.55500
_cell_length_b        6.67100
_cell_length_c        6.12700
_cell_angle_alpha    90.0000
_cell_angle_beta    114.8800
_cell_angle_gamma    90.0000
loop_
_atom_site_label
_atom_site_fract_x
_atom_site_fract_y
_atom_site_fract_z
_atom_site_occupancy
_atom_site_B_iso_or_equiv
cu      0.254   0.118   -0.032    1.00000    0.910
o      0.151   0.352   0.119    1.00000    0.840
h      0.210   0.350   0.260    1.00000    2.300
cl      0.322   0.409   -0.311    1.00000    1.039
_cell_measurement_wavelength    1.541874
_cell_measurement_radiation   'x-rays'
_exptl_crystal_density_diffrn    3.741000
loop_
_pd_peak_d_spacing
_pd_peak_intensity
     5.558359       1000.00
     4.270304         68.92
     4.021060          7.66
     3.947458          0.64
     3.335500         16.50
     2.860058          0.77
     2.836906         29.47
     2.781435         47.46
     2.779179         55.02
     2.775708         23.78
     2.760396        253.49
     2.756723        595.72
     2.565452          4.15
     2.562720          0.75
     2.519723        276.95
     2.448391         65.33
     2.357181          0.75
     2.298474          0.31
     2.284164        107.88
     2.243655        277.14
     2.135152          0.64
     2.133577          1.04
     2.064581         44.03
     2.034415          1.71
     2.024685         13.21
     2.010530          4.84
     2.000194        135.42
     1.994442         33.29
     1.973729          3.35
     1.949816         23.77
     1.929604         61.63
     1.915926         18.31
     1.853618         36.24
     1.852786         64.74
     1.813631          0.57
     1.793153         20.54
     1.785211          2.18
     1.771069        127.63
     1.770242          9.59
     1.751184         33.74
     1.739599         25.15
     1.736293          0.68
     1.735446          5.14
     1.715403          1.34
     1.670250          6.03
     1.667750         74.72
     1.667264          7.64
     1.646097          1.44
     1.628965          2.86
     1.619682          5.06
     1.608478        144.43
     1.597396         54.20
     1.594141         41.90
     1.585490          0.06
     1.583300          0.13
     1.578701         11.54
     1.567228         11.23
     1.525690          2.41
     1.522930          7.17
     1.516081          1.06
     1.502782          6.89
     1.501983         30.02
     1.500295         39.99
     1.487100         13.50
     1.478383         27.16
     1.475115          0.68
     1.472316          2.75
     1.466125         15.63
     1.461297          2.00
     1.457393         20.96
     1.430029         17.13
     1.429555         12.32
     1.423435          1.59
     1.418453          0.91
     1.415811          2.59
     1.415144          1.87
     1.406005          2.78
     1.399342         10.52
     1.390718         49.71
     1.389590          4.54
     1.387854         21.36
     1.380198          0.16
     1.378362         18.24
     1.377538         31.77
     1.368118          3.93
     1.360389         15.31
     1.358761          2.71
     1.358027          2.00
     1.340353          0.64
     1.335291         10.29
     1.330733          0.08
     1.328318          7.90
     1.315819          0.75
     1.309319         17.86
     1.303595          8.03
     1.297349          0.58
     1.290891          2.32
     1.289764          0.71
     1.289199         25.30
     1.287274          0.27
     1.282726          0.31
     1.281360          1.85
     1.281031          2.37
     1.280911         37.07
     1.266901          6.60
     1.261779         18.37
     1.260834         12.32
     1.259861          5.89
     1.257775          0.01
     1.252642         19.35
     1.250652          1.97
     1.239647          0.20
     1.239548         20.38
     1.238901          0.00
     1.237977          1.01
     1.234504          3.90
     1.227987          0.34
     1.227615          1.92
     1.225088          1.46
     1.224195          0.73
     1.221206         12.10
     1.213473          0.22
     1.206868          0.01
     1.204938          3.92
     1.204089          5.80
     1.202779          0.27
     1.202498          0.11
     1.195329          0.90
     1.183520          0.09
     1.183431          1.36
     1.179387          0.17
     1.179106          1.08
     1.178590          0.11
     1.178418         17.92
     1.177830         11.30
     1.177359          0.45
     1.171547          1.45
     1.166528          0.27
     1.166069         15.45
     1.158984          0.03
     1.151652         20.18
     1.149975          0.01
     1.149237          0.48
     1.144755         16.25
     1.142082          7.92
     1.141613          5.47
     1.132035          0.14
     1.130434         14.80
     1.126340         10.87
     1.124594          3.05
     1.121828          1.50
     1.120398          0.51
     1.116407          3.07
     1.116041          1.07
     1.114545          0.82
     1.111833          2.40
     1.111672          0.04
     1.109933          0.02
     1.097416          1.28
     1.096794          0.16
     1.096551          3.72
     1.096153          3.33
     1.093728          1.14
     1.093432          0.10
     1.092122          5.03
     1.090236          0.00
     1.086193          0.00
     1.085723          6.50
     1.084236         12.53
     1.082695          0.61
     1.079329          1.17
     1.077774          1.69
     1.074966          7.31
     1.074381          0.12
     1.073019          0.86
     1.072419          3.64
     1.071299          2.87
     1.070619          1.05
     1.067576          3.44
     1.066788         12.36
     1.066217          2.56
     1.060566          3.19
     1.054640          0.13
     1.053742          1.94
     1.053062          2.92
     1.052128          1.94
     1.047864          7.26
     1.045415          6.24
     1.045295          2.71
     1.045018          6.56
     1.044757          1.73
     1.043869         10.38
     1.042354          7.12
     1.040333          7.28
     1.037903          0.13
     1.033013          0.15
     1.032427          2.47
     1.032291          0.13
     1.032235          7.06
     1.032112          0.25
     1.022508         16.84
     1.019424          4.65
     1.017208          2.71
     1.015921          0.14
     1.012343          1.66
     1.008830          6.99
     1.007726          5.22
     1.007697          0.47
##############################################################################
###                            Comments                                    ###
##############################################################################
###   Synthetic
###   Diffraction pattern calculated by Match!. 
###   I/Ic calculated by Match!. 
##############################################################################


