##############################################################################
###               Crystal structure data exported by Match!                ###
##############################################################################
###                           Data published by:                           ###
###                                                                        ###
###               COD (Crystallography Open Database)
##############################################################################
data_1537623
_citation_journal_full    'Thin Solid Films'
_citation_journal_volume  '58'
_citation_page_first  '327'
_citation_page_last   '332'
_citation_year  '1979'
_citation_title  'Metastable structures of splat-cooled and vapour- depodited lead andantimony films'
loop_
_publ_author_name
  'Akhtar D.'
  'Vankar V.D.'
  'Goel T.C.'
  'Chopra K.L.'
_chemical_formula_sum  'Pb'
_chemical_name_common  'Lead'
_symmetry_space_group_name_H-M 'P 63/m m c'
_space_group_IT_number 194
_space_group_crystal_system 'hexagonal'
loop_
_symmetry_equiv_pos_as_xyz
   'x, y, z'
   'x-y, x, z+0.5'
   '-y, x-y, z'
   '-x, -y, z+0.5'
   '-x+y, -x, z'
   'y, -x+y, z+0.5'
   'x-y, -y, -z'
   '-x, -x+y, -z'
   'y, x, -z'
   '-y, -x, -z+0.5'
   '-x+y, y, -z+0.5'
   'x, x-y, -z+0.5'
   '-x, -y, -z'
   '-x+y, -x, -z+0.5'
   'y, -x+y, -z'
   'x, y, -z+0.5'
   'x-y, x, -z'
   '-y, x-y, -z+0.5'
   '-x+y, y, z'
   'x, x-y, z'
   '-y, -x, z'
   'y, x, z+0.5'
   'x-y, -y, z+0.5'
   '-x, -x+y, z+0.5'
_cell_length_a        3.48000
_cell_length_b        3.48000
_cell_length_c        5.59000
_cell_angle_alpha    90.0000
_cell_angle_beta     90.0000
_cell_angle_gamma   120.0000
_cell_formula_units_Z 2
loop_
_atom_site_label
_atom_site_fract_x
_atom_site_fract_y
_atom_site_fract_z
_atom_site_occupancy
_atom_site_B_iso_or_equiv
pb      0.333   0.667   0.250    1.00000    1.000
_cell_measurement_wavelength    1.541874
_cell_measurement_radiation   'x-rays'
_exptl_crystal_density_diffrn    11.737000
loop_
_pd_peak_d_spacing
_pd_peak_intensity
     3.013768        236.87
     2.795000        257.15
     2.652789       1000.00
     2.049344        153.79
     1.740000        178.71
     1.661376          0.00
     1.584876        192.59
     1.506884         26.66
     1.477148        198.29
     1.454948        140.61
     1.397500         26.87
     1.326395         33.11
     1.271734          0.00
     1.267826         27.99
     1.171688         63.38
     1.139097         19.27
     1.116159        108.32
     1.089582         67.16
     1.054857         30.71
     1.048200         45.44
     1.024672         14.39
##############################################################################
###                            Comments                                    ###
##############################################################################
###   Diffraction pattern calculated by Match!. 
###   I/Ic calculated by Match!. 
###   Space group has been derived from given symmetry operations. 
##############################################################################


