##############################################################################
###               Crystal structure data exported by Match!                ###
##############################################################################
###                           Data published by:                           ###
###                                                                        ###
###               COD (Crystallography Open Database)
##############################################################################
data_4323133
_citation_journal_full    'Inorganic Chemistry'
_citation_journal_volume  '37'
_citation_page_first  '5844'
_citation_page_last   '5850'
_citation_year  '1998'
_citation_title  'Syntheses, Structures, and Magnetic Properties of Metal(II) Phosphates with M(OH)(PO4)2- Layers (M = Ni, Co, Mg)'
loop_
_publ_author_name
  'Nobuaki Hamanaka'
  'Hideo Imoto'
_chemical_formula_sum  'Co2 H8 O11 P2'
_symmetry_space_group_name_H-M 'P c a b'
_space_group_IT_number 61
_space_group_crystal_system 'orthorhombic'
loop_
_symmetry_equiv_pos_as_xyz
   'x, y, z'
   '-x, -y+0.5, z+0.5'
   'x+0.5, -y, -z+0.5'
   '-x+0.5, y+0.5, -z'
   '-x, -y, -z'
   'x, y+0.5, -z+0.5'
   '-x+0.5, y, z+0.5'
   'x+0.5, -y+0.5, z'
_cell_length_a        8.44300
_cell_length_b       13.09400
_cell_length_c       15.48400
_cell_angle_alpha    90.0000
_cell_angle_beta     90.0000
_cell_angle_gamma    90.0000
_cell_formula_units_Z 8
loop_
_atom_site_label
_atom_site_fract_x
_atom_site_fract_y
_atom_site_fract_z
_atom_site_occupancy
_atom_site_B_iso_or_equiv
co      -0.037   0.111   0.258    1.00000    0.724
co      0.350   0.119   0.263    1.00000    0.724
p      0.153   0.289   0.365    1.00000    0.679
p      0.151   -0.060   0.366    1.00000    0.647
o      0.006   -0.035   0.309    1.00000    0.789
o      0.307   -0.025   0.324    1.00000    0.631
o      0.156   0.189   0.311    1.00000    0.789
o      -0.218   0.136   0.339    1.00000    1.183
o      0.491   0.162   0.361    1.00000    1.104
o      0.163   0.066   0.174    1.00000    0.866
o      -0.091   0.246   0.183    1.00000    0.866
o      0.181   0.259   0.464    1.00000    1.421
o      0.155   -0.172   0.390    1.00000    1.026
o      0.133   0.005   0.452    1.00000    1.183
o      0.399   0.081   0.511    1.00000    2.131
_cell_measurement_wavelength    1.541874
_cell_measurement_radiation   'x-rays'
_cell_measurement_temperature    296.000000
_exptl_crystal_density_diffrn    2.822000
_exptl_crystal_colour            'purple red'
loop_
_pd_peak_d_spacing
_pd_peak_intensity
     7.742000       1000.00
     6.664260         87.70
     6.547000          5.60
     6.450701          6.61
     5.231044         77.71
     5.173757          0.00
     4.999139          5.77
     4.907074          0.05
     4.301637         38.00
     4.221500          0.05
     4.173945         11.37
     4.072844         10.75
     3.889054          2.48
     3.871000         11.11
     3.802080         53.22
     3.761104         22.55
     3.712179          6.78
     3.706320         22.31
     3.653998         71.75
     3.566210          2.61
     3.547897          3.63
     3.466779         21.22
     3.458276          2.42
     3.398220          0.15
     3.332130         14.63
     3.273500         24.11
     3.267698        266.76
     3.225351          0.32
     3.170463          2.21
     3.099984          3.98
     3.099477        150.25
     3.052123          3.57
     3.015060        123.85
     2.994503          6.15
     2.977762        105.07
     2.923754          0.66
     2.896087          1.57
     2.853089         27.98
     2.839440          5.24
     2.838273          0.83
     2.825155         10.54
     2.787680          0.92
     2.739408          0.19
     2.709057          2.16
     2.657172         34.68
     2.627153          0.94
     2.615826         46.96
     2.615522          6.74
     2.592629          2.86
     2.586878          8.63
     2.585567          0.01
     2.580667          0.02
     2.551515         80.98
     2.550256         85.59
     2.531960          2.37
     2.499569         56.88
     2.496983         49.83
     2.480722         33.84
     2.469234          0.92
     2.453537          1.19
     2.452784          0.28
     2.452418          6.30
     2.428028          5.18
     2.425252          0.66
     2.419710          0.17
     2.400881          0.07
     2.396742          0.00
     2.388132          0.44
     2.380111          0.70
     2.338143          0.16
     2.333058          0.00
     2.312660         22.38
     2.311723         41.49
     2.309326          7.97
     2.262053          0.73
     2.250863          4.33
     2.242679          0.12
     2.221420          9.27
     2.202745          0.80
     2.201836          9.22
     2.182333          3.88
     2.173801          0.60
     2.171351          3.56
     2.169061         39.42
     2.167371         14.19
     2.150819          7.59
     2.150234          9.88
     2.150065          0.41
     2.148305          2.96
     2.138775          0.30
     2.134068          0.00
     2.114084          0.70
     2.112892         13.43
     2.111770          2.65
     2.110750         11.72
     2.100840          0.11
     2.100479          2.80
     2.093491          8.90
     2.091407         11.11
     2.086973          1.25
     2.065230          1.15
     2.057339          3.33
     2.056895         31.27
     2.043522          0.36
     2.038346          4.86
     2.036422          0.24
     2.033906          0.17
     2.026627         40.47
     2.018318          2.74
     2.012232          0.85
     2.008925          0.44
     1.992228          4.00
     1.985335         43.99
     1.984742         51.26
     1.972139          3.77
     1.970650          0.01
     1.965856          0.00
     1.959319         11.92
     1.955390          0.01
     1.953692          1.02
     1.945826          3.20
     1.944527          6.09
     1.938612          0.61
     1.937745          2.15
     1.935500         12.94
     1.932301          1.74
     1.929291          0.58
     1.923594          2.45
     1.921313          1.29
     1.914695          0.01
     1.902645          0.07
     1.901040          8.79
     1.886064          3.14
     1.882304          0.29
     1.880552          3.47
     1.879709          0.59
     1.877064          2.61
     1.872114          0.62
     1.868881          0.01
     1.867281          1.84
     1.860963          0.05
     1.856089          0.17
     1.854609          0.02
     1.853160          0.23
     1.845440          5.33
     1.838141          0.56
     1.834875          0.03
     1.826999          5.16
     1.826537          7.34
     1.818252          2.68
     1.814819          3.45
     1.813714          1.40
     1.812801          0.24
     1.807165          1.10
     1.797195          0.32
     1.796068          2.82
     1.791078          2.01
     1.787477          1.44
     1.783201          2.09
     1.783105          0.10
     1.777500          1.06
     1.773949          0.83
     1.769336         13.59
     1.762420          0.06
     1.759393          1.88
     1.757231          1.26
     1.745352          0.08
     1.744144          0.14
     1.743723          1.36
     1.743681          0.01
     1.733390          3.40
     1.731719         11.08
     1.729138          0.82
     1.728874          0.05
     1.724586          0.00
     1.723975          9.49
     1.721684          0.99
     1.718013          0.65
     1.713987         23.37
     1.705777          0.04
     1.699861          0.32
     1.699110          0.18
     1.685363          0.45
     1.685309          0.31
     1.684237          0.72
     1.683327          0.25
     1.681184         14.25
     1.680824         59.91
     1.677625          1.75
     1.672001          0.01
     1.669940          1.43
     1.666380          0.32
     1.666065         26.90
     1.665021          0.01
     1.656990          1.73
     1.651694          0.10
     1.644592          0.74
     1.643197          4.94
     1.636872          4.30
     1.636750          2.91
     1.635691         50.41
     1.635090         11.10
     1.634842          2.17
     1.634545          0.64
     1.634220          0.46
     1.633849          0.03
     1.632549          0.00
     1.631806          0.16
     1.630081          4.25
     1.626049          1.28
     1.623401          0.10
     1.621276          0.91
     1.619617          0.60
     1.615588          0.47
     1.612675          2.97
     1.607580          0.05
     1.606835          0.18
     1.601355          8.08
     1.599801         37.45
     1.598252          3.97
     1.593215          0.00
     1.592972          0.08
     1.585231          0.10
     1.583064          0.14
     1.581550          6.73
     1.575320          2.98
     1.573306          0.35
     1.573108          0.14
     1.572578          0.00
     1.568829          3.41
     1.566767          0.06
     1.565936          0.87
     1.564332          0.15
     1.558743          2.25
     1.556521          0.06
     1.550026          1.87
     1.549992          1.02
     1.549739          5.29
     1.549457          1.55
     1.548400          7.61
     1.548037          0.25
     1.543245          0.06
     1.539287          0.23
     1.538969          1.22
     1.537686          5.51
     1.537050          0.30
     1.535826          2.50
     1.534206          2.06
     1.530726          0.85
     1.530155          4.60
     1.527876          2.09
     1.527240          0.32
     1.527066          0.44
     1.526062          0.68
     1.518703         39.09
     1.517201          0.78
     1.516786          0.22
     1.514549          1.08
     1.512801          2.40
     1.512720          0.16
     1.509970          3.29
     1.507530         21.34
     1.506831          0.13
     1.506703         28.01
     1.506291          0.02
     1.506233         41.73
     1.500702          1.24
     1.498736          3.10
     1.497906          0.02
     1.497252          2.27
     1.497080          3.91
     1.496624          2.60
     1.493703          0.48
     1.491397          0.00
     1.490753          1.02
     1.488881          0.07
     1.487148          1.95
     1.484059          0.18
     1.483392          0.05
     1.473279          0.64
     1.473116          0.48
     1.463434          7.64
     1.461877          0.85
     1.460413          0.09
     1.459292          0.14
     1.458753          0.97
     1.458749          1.84
     1.457937          1.10
     1.455614          0.44
     1.453699          0.08
     1.451656          0.06
     1.448752          8.57
     1.448044          2.25
     1.445920          0.44
     1.445209          0.02
     1.444822          0.33
     1.441392          1.19
     1.441025          0.00
     1.437971          0.11
     1.433879          0.96
     1.433679          0.05
     1.432554         17.43
     1.432331         21.83
     1.429861          0.09
     1.427650          0.24
     1.427205          7.89
     1.426544          0.94
     1.426270          0.84
     1.425578          0.76
     1.419720          0.11
     1.419136          0.01
     1.418153          0.42
     1.417496          0.07
     1.414871          0.62
     1.413236          0.86
     1.412578          1.08
     1.409786          2.25
     1.409001         11.06
     1.408315          0.07
     1.407167          9.66
     1.404840          0.44
     1.403760          0.16
     1.401392          4.01
     1.399712          4.63
     1.399233          0.45
     1.395901          1.05
     1.394255          0.10
     1.393840          0.30
     1.393434          0.00
     1.391819          1.65
     1.391682          0.26
     1.391315          2.51
     1.386191          0.14
     1.384484          4.11
     1.383893          1.23
     1.382194          8.02
     1.381448          0.83
     1.381194         11.22
     1.380865          0.00
     1.380731          0.38
     1.379212          0.58
     1.377601          0.04
     1.376809          1.49
     1.375748          0.04
     1.370350          0.33
     1.370098          0.45
     1.369704          0.04
     1.368878          0.05
     1.368375          0.01
     1.364529          1.51
     1.364036          0.08
     1.362472          0.00
     1.362080          0.04
     1.361877          1.02
     1.361115          0.22
     1.360071          1.39
     1.358262          1.63
     1.357615          0.02
     1.355957          2.34
     1.354528          1.38
     1.354285          0.16
     1.352980          2.39
     1.351123          1.27
     1.350486          0.09
     1.350376          0.96
     1.349404          0.00
     1.345062          1.38
     1.344498          0.05
     1.344306          2.61
     1.339394          1.50
     1.335497         13.17
     1.335357          5.09
     1.335213          0.03
     1.334302          0.37
     1.334111          2.54
     1.333687          0.04
     1.333571          1.46
     1.332852          0.00
     1.332438          1.07
     1.330557          1.04
     1.329335          0.00
     1.329105          0.51
     1.328887          0.00
     1.328586          2.55
     1.328466          0.86
     1.328408          0.56
     1.328312          0.00
     1.326708          0.00
     1.323135          2.35
     1.322497          0.17
     1.319683          5.01
     1.319172          0.07
     1.316548          4.72
     1.316495          0.42
     1.316060         11.31
     1.315803          0.69
     1.314863          0.17
     1.313577          0.72
     1.309400          0.35
     1.308418          0.03
     1.307913          2.49
     1.307761          0.02
     1.306738          0.08
     1.301079          0.19
     1.300034          0.44
     1.297299          0.91
     1.296351          0.57
     1.296314          0.04
     1.296101          0.09
     1.295492          0.31
     1.293932          0.00
     1.293439          0.23
     1.292917          0.30
     1.292783          0.44
     1.291065          1.14
     1.290333          0.43
     1.290140          0.11
     1.289437          0.01
     1.288950          1.20
     1.288301          0.42
     1.287929          2.31
     1.287602          0.00
     1.286916          0.07
     1.286788          0.40
     1.284113          4.48
     1.282919          0.08
     1.281581          1.03
     1.281111          0.16
     1.280459          1.92
     1.278242          0.33
     1.276931          4.95
     1.276230          0.37
     1.275757          0.02
     1.275652          0.76
     1.275369          0.02
     1.275128          4.21
     1.275022          0.01
     1.274768          0.16
     1.273680          1.30
     1.271006          0.34
     1.269514          0.71
     1.267360          0.01
     1.266451          1.03
     1.265980          0.45
     1.265673          0.83
     1.262828          0.60
     1.262475          1.91
     1.257266          0.41
     1.257071          0.09
     1.256129          3.96
     1.255092          0.07
     1.254642          0.18
     1.254044          0.66
     1.253701          4.23
     1.253319          4.67
     1.253266          0.34
     1.253165          0.08
     1.252737          0.08
     1.252284          0.19
     1.251984          1.27
     1.251174          0.15
     1.250621          0.32
     1.249785          0.44
     1.249344          0.09
     1.249045          1.42
     1.248935          1.52
     1.248492          0.07
     1.246562          0.55
     1.243532          0.10
     1.242855          0.31
     1.241872          0.15
     1.240644          0.13
     1.240361          3.08
     1.237393          1.42
     1.237319          0.68
     1.236438          3.11
     1.236313          0.23
     1.236295          2.43
     1.235600          0.36
     1.235440          0.18
     1.235020          0.06
     1.234617          0.35
     1.233977          0.47
     1.230542          0.95
     1.229977          0.46
     1.229252          0.01
     1.228534          0.25
     1.227189          0.82
     1.226769          2.80
     1.226717          1.22
     1.226392          0.61
     1.226323          0.27
     1.226209          2.29
     1.225889          0.08
     1.224314          0.21
     1.223965          0.60
     1.221566          2.93
     1.218028          0.11
     1.217999          0.04
     1.215449          1.00
##############################################################################
###                            Comments                                    ###
##############################################################################
###   Diffraction pattern calculated by Match!. 
###   I/Ic calculated by Match!. 
##############################################################################


