##############################################################################
###               Crystal structure data exported by Match!                ###
##############################################################################
###                           Data published by:                           ###
###                                                                        ###
###               COD (Crystallography Open Database)
##############################################################################
data_9000595
_citation_journal_full    'American Mineralogist'
_citation_journal_volume  '62'
_citation_page_first  '1168'
_citation_page_last   '1172'
_citation_year  '1977'
_citation_title  'Crystal structure refinement of a weakly anisotropic pyrite'
loop_
_publ_author_name
  'Bayliss P.'
_chemical_formula_sum  'Fe S2'
_chemical_name_mineral  'Pyrite'
_symmetry_space_group_name_H-M 'P 1'
_space_group_IT_number 1
_space_group_crystal_system 'triclinic'
loop_
_symmetry_equiv_pos_as_xyz
   'x, y, z'
_cell_length_a        5.41660
_cell_length_b        5.41660
_cell_length_c        5.41660
_cell_angle_alpha    90.0000
_cell_angle_beta     90.0000
_cell_angle_gamma    90.0000
loop_
_atom_site_label
_atom_site_fract_x
_atom_site_fract_y
_atom_site_fract_z
_atom_site_occupancy
_atom_site_B_iso_or_equiv
fe      0.001   0.002   0.003    1.00000    0.250
fe      0.497   0.000   0.504    1.00000    0.277
fe      0.500   0.502   0.001    1.00000    0.269
fe      -0.001   0.501   0.504    1.00000    0.265
s      0.386   0.383   0.384    1.00000    0.164
s      0.115   0.611   0.885    1.00000    0.614
s      0.885   0.116   0.614    1.00000    0.128
s      0.615   0.886   0.114    1.00000    0.598
s      0.615   0.613   0.614    1.00000    0.508
s      0.885   0.382   0.115    1.00000    0.074
s      0.115   0.886   0.384    1.00000    0.571
s      0.386   0.116   0.884    1.00000    0.082
_cell_measurement_wavelength    1.541874
_cell_measurement_radiation   'x-rays'
_exptl_crystal_density_diffrn    5.015000
loop_
_pd_peak_d_spacing
_pd_peak_intensity
     5.416600          0.20
     3.830115          0.16
     3.127276        392.75
     2.708300        955.45
     2.422377        547.65
     2.211318        454.34
     1.915057        510.51
     1.805533          6.67
     1.712879          0.21
     1.633166       1000.00
     1.563638        158.63
     1.502295        160.56
     1.447647        215.10
     1.354150          0.60
     1.313719          7.62
     1.276705          4.40
     1.242653        105.92
     1.211189        131.92
     1.181999         85.52
     1.154823         41.98
     1.105659        125.69
     1.083320          3.81
     1.062283          5.71
     1.042425        335.86
##############################################################################
###                            Comments                                    ###
##############################################################################
###   Diffraction pattern calculated by Match!. 
###   I/Ic calculated by Match!. 
###   Space group has been derived from given symmetry operations. 
##############################################################################


