##############################################################################
###               Crystal structure data exported by Match!                ###
##############################################################################
###                           Data published by:                           ###
###                                                                        ###
###               COD (Crystallography Open Database)
##############################################################################
data_9009246
_citation_journal_full    'Neues Jahrbuch fur Mineralogie, Abhandlungen'
_citation_journal_volume  '109'
_citation_page_first  '185'
_citation_page_last   '191'
_citation_year  '1968'
_citation_title  'Die Kristallstruktur von Nordstrandit, Al(OH)3'
loop_
_publ_author_name
  'Saalfeld H.'
  'Jarchow O.'
_chemical_formula_sum  'Al H3 O3'
_chemical_name_mineral  'Nordstrandite'
_symmetry_space_group_name_H-M 'I -1'
_space_group_IT_number 2
_space_group_crystal_system 'triclinic'
loop_
_symmetry_equiv_pos_as_xyz
   'x, y, z'
   'x+0.5, y+0.5, z+0.5'
   '-x, -y, -z'
   '-x+0.5, -y+0.5, -z+0.5'
_cell_length_a        8.75200
_cell_length_b        5.06900
_cell_length_c       10.24400
_cell_angle_alpha   109.3300
_cell_angle_beta     97.6600
_cell_angle_gamma    88.3400
loop_
_atom_site_label
_atom_site_fract_x
_atom_site_fract_y
_atom_site_fract_z
_atom_site_occupancy
_atom_site_B_iso_or_equiv
al      0.167   0.504   0.002    1.00000    0.799
al      0.331   -0.015   0.001    1.00000    0.799
o      0.180   0.135   -0.115    1.00000    0.409
o      0.662   0.592   -0.099    1.00000    0.799
o      0.491   0.047   -0.113    1.00000    0.970
o      0.974   0.573   -0.099    1.00000    0.900
o      0.292   0.621   -0.115    1.00000    0.850
o      0.814   0.095   -0.093    1.00000    1.530
_cell_measurement_wavelength    1.541874
_cell_measurement_radiation   'x-rays'
_exptl_crystal_density_diffrn    2.438000
loop_
_pd_peak_d_spacing
_pd_peak_intensity
     6.896054          0.62
     6.047836          4.90
     4.987706          0.01
     4.791514       1000.00
     4.336381        199.36
     4.217029        174.50
     4.159633        138.69
     3.886067         90.77
     3.806426          0.22
     3.597213         90.08
     3.448027         63.93
     3.359044          0.02
     3.192322          0.24
     3.186432          0.01
     3.133745          4.82
     3.023918         39.90
     2.957551          0.26
     2.877588          0.07
     2.873905          2.54
     2.859501         31.26
     2.772726          0.74
     2.728783          1.29
     2.706812         11.40
     2.672504          6.33
     2.493853          9.99
     2.491999          1.25
     2.488239         89.67
     2.486398          4.91
     2.456501         26.98
     2.435083          0.64
     2.432212          3.47
     2.412395          6.20
     2.395757         21.59
     2.391310        174.84
     2.325249          0.29
     2.322186         11.42
     2.298685          6.78
     2.283344         15.16
     2.266293        212.17
     2.224101          4.64
     2.211490          0.59
     2.194677         11.20
     2.168191          0.16
     2.159316          9.82
     2.143566          1.19
     2.116851          0.15
     2.115398          0.61
     2.108515          0.25
     2.080505          1.32
     2.079817          5.60
     2.073463          0.52
     2.068052          1.39
     2.026865          0.50
     2.024875          0.11
     2.022664        235.03
     2.015945          0.93
     1.989466          5.43
     1.972457          1.11
     1.966345          1.18
     1.952117          0.30
     1.943034         14.20
     1.938962          0.13
     1.935003          0.72
     1.925414          3.42
     1.918058          1.52
     1.905274          5.00
     1.903213        200.26
     1.901880          1.76
     1.885190          1.33
     1.884703         12.00
     1.881935          0.48
     1.833440          0.20
     1.821786          3.29
     1.819456          0.53
     1.818820          1.20
     1.798607         11.07
     1.785987          9.56
     1.780369        139.40
     1.767536          1.13
     1.748549          0.03
     1.747457          0.10
     1.741343          0.50
     1.739429          0.15
     1.724013         12.61
     1.703982          1.42
     1.703642          0.13
     1.702507         19.50
     1.700161          1.70
     1.694197          0.56
     1.679522          3.59
     1.678303         35.41
     1.674420          0.31
     1.668889          0.21
     1.666923          1.51
     1.664065          0.13
     1.662964          0.51
     1.662569          0.07
     1.659370         13.60
     1.648842          7.35
     1.639157          3.41
     1.622219          1.28
     1.622214          1.66
     1.620690          3.64
     1.619354          3.65
     1.615775          0.17
     1.614445          0.60
     1.605402          0.01
     1.597171          0.09
     1.596161         11.89
     1.593449          0.08
     1.593216         39.91
     1.587865          0.78
     1.585537          0.05
     1.579742          0.04
     1.576633          9.90
     1.572474         16.48
     1.566872          1.99
     1.565451          0.00
     1.563440          7.75
     1.557203         15.72
     1.556655          0.82
     1.556051          0.08
     1.553321         34.20
     1.550563          0.07
     1.546083          0.98
     1.545832         10.08
     1.526397          0.08
     1.518884         14.02
     1.515399         51.77
     1.511959          9.96
     1.509843          0.01
     1.508889          0.25
     1.497545          0.51
     1.494720          0.03
     1.491474          0.02
     1.478776          0.85
     1.477132         50.45
     1.467440         15.37
     1.465989          0.25
     1.452018          0.29
     1.449660          1.33
     1.448797          0.04
     1.446823          0.48
     1.445460         45.09
     1.444491          0.36
     1.441353          1.14
     1.440549          5.65
     1.440197         50.94
     1.438794          3.00
     1.438019         28.40
     1.437495          0.70
     1.436953         36.28
     1.433006          0.15
     1.429750          6.43
     1.428907          0.39
     1.427432          6.10
     1.418071          0.12
     1.414975          2.05
     1.407801          1.23
     1.405676         23.79
     1.397858          0.00
     1.397424          0.14
     1.392427          2.40
     1.391294          0.12
     1.386544          7.16
     1.386363          0.29
     1.383042          0.72
     1.382285          0.01
     1.382260          6.85
     1.381433          0.52
     1.380431          0.01
     1.380151          0.94
     1.379211          0.16
     1.376038          5.89
     1.374925          6.30
     1.374134          1.50
     1.369654          1.46
     1.367845          0.28
     1.364391          1.85
     1.360171          1.00
     1.359653          1.40
     1.354242          9.39
     1.354025          2.12
     1.353406          7.41
     1.353332          0.49
     1.346089          3.16
     1.342065          1.76
     1.341132          2.26
     1.338322          0.13
     1.336252          4.10
     1.331225          0.00
     1.330660          0.00
     1.325747          0.41
     1.323893          0.11
     1.323840          0.07
     1.323072          0.27
     1.321966          1.33
     1.316366          1.36
     1.316361          1.87
     1.310026         37.83
     1.305271          0.95
     1.305032          0.07
     1.300937          2.11
     1.295356          1.06
     1.288770          1.10
     1.287787          0.01
     1.286831          1.08
     1.281932          0.96
     1.279416          3.68
     1.276016          2.09
     1.272904          0.16
     1.269635          2.14
     1.268809          0.18
     1.268114          0.14
     1.265501          0.07
     1.262114          0.15
     1.260655          0.12
     1.258356          0.39
     1.257371          0.47
     1.253373          0.07
     1.251860          1.13
     1.251655          0.07
     1.249759          0.00
     1.248817         26.28
     1.246927          9.53
     1.245999          5.30
     1.245904          0.00
     1.244119          0.04
     1.243199          3.09
     1.239659          0.01
     1.232002          0.42
     1.228250         19.46
     1.228040          8.78
     1.228032          2.03
     1.225347          1.18
     1.225290          1.79
     1.224471          0.16
     1.223611          0.00
     1.222506          0.02
     1.220612          2.32
     1.220243          0.17
     1.217541          3.17
     1.217173          3.07
     1.216494          1.05
     1.216106          0.83
     1.215057          9.99
     1.214321          0.09
     1.212257          0.97
##############################################################################
###                            Comments                                    ###
##############################################################################
###   Diffraction pattern calculated by Match!. 
###   I/Ic calculated by Match!. 
###   Space group has been derived from given symmetry operations. 
##############################################################################


