##############################################################################
###               Crystal structure data exported by Match!                ###
##############################################################################
###                           Data published by:                           ###
###                                                                        ###
###               COD (Crystallography Open Database)
##############################################################################
data_1526826
_citation_journal_full    'Journal of Solid State Chemistry'
_citation_journal_volume  '160'
_citation_page_first  '322'
_citation_page_last   '331'
_citation_year  '2001'
_citation_title  'Three forms of the misfit layered cobaltite (Ca2 Co O3) (Co O2)1.62. A 4D structural investigation'
loop_
_publ_author_name
  'Lambert S.'
  'Leligny H.'
  'Grebille D.'
_chemical_formula_sum  'Co0.885 O2'
_chemical_name_common  'Co0.885 O2'
_symmetry_space_group_name_H-M 'C 1 2/m 1'
_space_group_IT_number 12
_space_group_crystal_system 'monoclinic'
loop_
_symmetry_equiv_pos_as_xyz
   'x, y, z'
   'x+0.5, y+0.5, z'
   '-x, y, -z'
   '-x+0.5, y+0.5, -z'
   '-x, -y, -z'
   '-x+0.5, -y+0.5, -z'
   'x, -y, z'
   'x+0.5, -y+0.5, z'
_cell_length_a        4.83600
_cell_length_b        2.82000
_cell_length_c       32.47300
_cell_angle_alpha    90.0000
_cell_angle_beta     95.8400
_cell_angle_gamma    90.0000
_cell_formula_units_Z 6
loop_
_atom_site_label
_atom_site_fract_x
_atom_site_fract_y
_atom_site_fract_z
_atom_site_occupancy
_atom_site_B_iso_or_equiv
co      0.522   0.250   0.167    0.44800    1.000
co      0.750   0.250   0.500    0.43190    1.000
o      0.709   0.750   0.198    0.50000    1.000
o      0.836   0.250   0.136    0.50000    1.000
o      0.105   0.250   0.531    0.50000    1.000
_cell_measurement_wavelength    1.541874
_cell_measurement_radiation   'x-rays'
_exptl_crystal_density_diffrn    1.903000
loop_
_pd_peak_d_spacing
_pd_peak_intensity
    32.304462          0.61
    16.152231          0.13
    10.768154       1000.00
     8.076116          0.04
     6.460892          0.02
     5.384077        141.10
     4.614923          0.02
     4.038058          0.01
     3.589385         25.16
     3.230446          0.01
     2.936769          0.00
     2.692039          4.74
     2.484959          0.00
     2.417091          3.35
     2.415286          1.15
     2.405450          0.11
     2.400126          1.61
     2.380937          1.59
     2.372349          4.05
     2.344707          3.14
     2.333247          0.95
     2.307462          0.00
     2.298359          0.11
     2.284505          3.77
     2.243752          2.01
     2.228021          4.78
     2.182826          3.29
     2.165730          0.96
     2.153631          1.37
     2.117452          0.20
     2.099464          4.15
     2.049323          2.05
     2.030856          4.85
     2.019029          0.00
     1.979894          3.37
     1.961292          1.02
     1.910359          0.02
     1.900262          0.00
     1.891898          2.67
     1.841656          1.65
     1.823545          4.03
     1.794692          0.93
     1.774490          3.02
     1.756884          0.98
     1.709369          0.08
     1.700235          0.00
     1.692372          1.06
     1.646633          1.08
     1.630314          2.75
     1.615223          0.00
     1.586494          2.29
     1.570889          0.80
     1.538308          1.02
     1.529059          0.35
     1.514185          0.24
     1.474361          0.59
     1.468385          0.00
     1.460216          1.60
     1.422377          1.49
     1.410000          3.12
     1.408947          0.55
     1.408659          0.00
     1.404658          0.00
     1.404542          0.00
     1.398065          5.38
     1.388990          0.00
     1.377577          0.00
     1.373043          0.49
     1.364002          3.46
     1.360306          0.02
     1.348465          0.00
     1.346019          1.12
     1.331181          0.00
     1.326269          0.29
     1.314198          0.83
     1.312374          1.74
     1.292269          0.00
     1.292178          0.00
     1.281947          0.85
     1.271088          0.00
     1.270512          0.32
     1.249044          0.78
     1.242479          0.00
     1.239961          0.42
     1.229128          0.00
     1.226338          0.00
     1.217922          0.59
     1.217690          0.21
     1.216424          0.04
     1.215734          0.22
     1.213218          0.26
     1.212077          0.69
     1.208940          0.34
     1.208545          0.05
     1.208342          0.58
     1.207643          0.01
     1.206765          0.19
     1.206465          0.08
     1.204672          0.08
     1.203154          0.00
     1.202725          0.41
     1.201858          0.00
     1.200187          0.14
     1.200063          0.32
     1.199864          0.49
     1.197371          0.03
     1.196462          1.08
     1.193873          0.00
     1.193843          0.34
     1.191456          0.85
     1.190468          0.18
     1.189924          0.41
     1.186174          0.11
     1.184392          0.66
     1.182097          0.52
     1.181638          0.20
     1.179661          0.41
     1.177058          0.36
     1.173609          0.01
     1.172353          0.03
     1.170519          0.63
     1.166623          0.01
     1.162501          0.46
     1.161610          0.40
     1.161343          0.24
     1.158216          0.99
     1.156009          0.00
     1.154983          0.14
     1.153731          0.00
     1.152776          0.18
     1.149180          0.61
     1.148518          0.76
     1.144853          0.24
     1.142253          0.43
     1.135983          0.04
     1.134457          0.00
     1.132332          0.00
     1.130554          0.53
     1.128555          0.00
     1.126783          0.26
     1.121876          0.20
     1.119553          0.40
     1.117563          0.00
     1.115446          1.01
     1.114011          0.13
     1.113947          0.00
     1.108743          0.36
     1.106979          0.63
     1.103930          0.83
     1.099652          0.28
     1.098742          0.49
     1.092914          0.08
     1.091413          0.06
     1.087708          0.03
     1.085343          0.00
     1.084168          0.22
     1.083290          0.29
     1.082865          0.01
     1.076815          0.92
     1.075292          0.11
     1.071002          0.35
     1.066493          0.10
     1.066472          0.92
     1.062214          0.00
     1.060781          0.25
     1.058726          0.56
     1.053919          0.83
     1.052480          0.09
     1.049732          0.51
     1.049306          0.29
     1.042079          0.00
     1.041817          0.08
     1.039426          0.47
     1.036559          0.14
     1.032680          0.05
     1.031888          0.10
     1.030275          0.12
     1.024661          0.03
     1.022392          0.00
     1.019014          0.26
     1.017035          0.00
     1.015428          0.07
     1.014309          0.73
     1.009514          0.00
     1.007345          0.44
##############################################################################
###                            Comments                                    ###
##############################################################################
###   Diffraction pattern calculated by Match!. 
###   I/Ic calculated by Match!. 
##############################################################################


