##############################################################################
###               Crystal structure data exported by Match!                ###
##############################################################################
###                           Data published by:                           ###
###                                                                        ###
###               COD (Crystallography Open Database)
##############################################################################
data_1534642
_citation_journal_full    'J. Phys. Chem. B'
_citation_journal_volume  '109'
_citation_page_first  '8857'
_citation_page_last   '8860'
_citation_year  '2005'
_citation_title  'Structural Refinement of the High-Pressure Phase of AluminiumTrihydroxide: In-Situ High-Pressure Angle Dispersive Synchrotron X-rayDiffraction and Theoretical Studies'
loop_
_publ_author_name
  'Liu H.'
  'Tse J.S.'
  'Hu J.'
  'Liu Z.'
  'Wang L.'
  'Weidner D.J.'
  'Chen J.'
  'Meng Y.'
  'Mao H.-K.'
  'Haeusermann D.'
_chemical_formula_sum  'Al H3 O3'
_chemical_name_common  'Aluminium(III) hydroxide'
_symmetry_space_group_name_H-M 'P b c a'
_space_group_IT_number 61
_space_group_crystal_system 'orthorhombic'
loop_
_symmetry_equiv_pos_as_xyz
   'x, y, z'
   '-x+0.5, -y, z+0.5'
   'x+0.5, -y+0.5, -z'
   '-x, y+0.5, -z+0.5'
   '-x, -y, -z'
   'x+0.5, y, -z+0.5'
   '-x+0.5, y+0.5, z'
   'x, -y+0.5, z+0.5'
_cell_length_a        8.68570
_cell_length_b        5.05210
_cell_length_c        9.49540
_cell_angle_alpha    90.0000
_cell_angle_beta     90.0000
_cell_angle_gamma    90.0000
_cell_formula_units_Z 8
loop_
_atom_site_label
_atom_site_fract_x
_atom_site_fract_y
_atom_site_fract_z
_atom_site_occupancy
_atom_site_B_iso_or_equiv
o      0.298   0.722   0.901    1.00000    1.000
o      0.820   0.145   0.892    1.00000    1.000
o      0.981   0.639   0.895    1.00000    1.000
al      0.333   0.014   0.995    1.00000    1.000
_cell_measurement_wavelength    1.541874
_cell_measurement_radiation   'x-rays'
_exptl_crystal_density_diffrn    2.390000
loop_
_pd_peak_d_spacing
_pd_peak_intensity
     4.747700       1000.00
     4.342850        236.74
     4.165958          0.00
     3.967578        476.80
     3.293315          0.02
     3.214141          4.56
     3.204444        110.06
     3.111483          8.03
     2.706017          0.14
     2.562804         53.63
     2.526050          1.45
     2.471871         24.15
     2.441145         98.84
     2.428442         33.27
     2.373850         19.57
     2.350091          5.67
     2.289868          4.02
     2.282057          8.46
     2.230048         55.45
     2.220351        322.84
     2.183540          0.27
     2.171425          0.81
     2.159990         15.97
     2.128000          0.05
     2.085635          0.20
     2.082979          6.28
     1.994961          2.63
     1.983789         18.06
     1.974691          6.68
     1.974355         96.12
     1.967617        219.75
     1.952338         10.55
     1.925722          1.35
     1.925243         13.86
     1.866289          2.28
     1.839190          0.36
     1.835697          2.95
     1.797335          0.04
     1.766721          7.75
     1.741538          8.51
     1.729871        103.89
     1.725333         28.98
     1.696550          0.98
     1.687697         14.03
     1.646657         17.34
     1.645152          0.64
     1.631368          0.00
     1.631179          0.14
     1.628743          8.04
     1.622442          4.07
     1.618697         13.96
     1.607070         41.35
     1.602222         27.22
     1.582567          0.13
     1.570119          9.30
     1.561294          4.66
     1.556934          2.55
     1.555742         16.55
     1.552438         12.16
     1.549084          0.13
     1.527258          0.19
     1.517953          0.59
     1.514884        134.06
     1.495290         10.32
     1.490714          4.82
     1.487883          0.11
     1.486917          2.18
     1.484994          1.35
     1.465387         12.79
     1.460793          5.57
     1.458058         12.94
     1.447617         38.29
     1.438883        128.46
     1.432943          0.01
     1.426420          1.22
     1.415359          0.73
     1.406563          0.00
     1.401875          0.21
     1.391744          0.14
     1.391615          4.65
     1.388653          0.65
     1.384680         26.10
     1.376906          0.22
     1.375500          0.11
     1.370423          0.36
     1.356656          0.90
     1.353009          3.00
     1.350834          2.01
     1.344383          0.67
     1.341110         32.85
     1.338992         17.01
     1.335430          0.76
     1.330735         11.74
     1.325404          2.94
     1.322526          9.94
     1.317857          1.36
     1.309579          0.03
     1.304190          0.78
     1.295431          5.68
     1.281402         15.28
     1.281354          4.29
     1.278940          8.87
     1.273921          0.40
     1.263025          1.37
     1.255991          6.30
     1.254257          0.22
     1.251998          1.79
     1.246940          8.86
     1.245146          5.00
     1.244106          0.06
     1.242414          7.43
     1.240951          0.05
     1.239830          0.19
     1.239190          1.37
     1.235936          0.78
     1.226723          1.24
     1.225765          0.38
     1.220573          7.85
     1.216897          0.45
     1.214221         17.56
     1.212777          8.60
     1.210091          0.82
     1.208696         11.33
     1.203004          0.30
     1.200533          2.88
     1.200492          2.17
     1.199445          9.33
     1.195416          9.19
     1.195075          8.85
     1.193576         20.09
     1.186925         12.16
     1.183921          0.19
     1.175996          0.29
     1.175046          6.82
     1.173076          2.89
     1.171728          2.91
     1.169881          0.40
     1.167971          6.10
     1.167434          8.18
     1.162521          1.45
     1.160787          1.44
     1.155326          0.07
     1.152245          0.04
     1.149154          0.31
     1.145375          0.02
     1.144934          2.47
     1.143214          0.29
     1.143042          0.43
     1.141029          1.65
     1.139724          1.17
     1.132488          0.53
     1.129517          2.77
     1.126151          2.16
     1.124711          0.33
     1.122499          0.00
     1.121737          0.19
     1.116619          0.26
     1.115024         13.87
     1.114617          0.00
     1.110176         21.04
     1.106125          1.77
     1.105948          3.08
     1.104667          0.03
     1.099653          0.05
     1.098221          0.61
     1.097772          0.66
     1.091770          2.71
     1.090508          0.32
     1.089809          0.93
     1.087223          0.04
     1.085713          3.41
     1.084624          0.19
     1.084275          0.01
     1.079995          0.27
     1.077418          0.92
     1.074494          1.45
     1.074247          3.59
     1.073158          9.29
     1.071380          0.31
     1.069553          0.13
     1.068148          1.36
     1.066124          3.29
     1.064000          3.10
     1.061562          0.23
     1.061478          0.28
     1.058391          2.71
     1.054907          0.00
     1.051674          0.09
     1.050569          2.27
     1.048670          2.90
     1.047603          0.12
     1.046983          1.52
     1.045974          3.09
     1.045046          1.73
     1.044048          1.54
     1.042818          1.84
     1.041489          0.48
     1.040525          0.10
     1.037161          0.74
     1.035903          0.17
     1.032095          0.43
     1.026466          0.97
     1.025541          4.11
     1.022131          0.01
     1.020040          0.70
     1.019945          0.92
     1.018513          0.51
     1.017464          0.51
     1.015691          1.26
     1.008259          0.05
     1.007154          0.60
     1.006391          0.00
##############################################################################
###                            Comments                                    ###
##############################################################################
###   Diffraction pattern calculated by Match!. 
###   I/Ic calculated by Match!. 
###   Space group has been derived from given symmetry operations. 
##############################################################################


