##############################################################################
###               Crystal structure data exported by Match!                ###
##############################################################################
###                           Data published by:                           ###
###                                                                        ###
###               COD (Crystallography Open Database)
##############################################################################
data_9005798
_citation_journal_full    'Physics and Chemistry of Minerals'
_citation_journal_volume  '13'
_citation_page_first  '146'
_citation_page_last   '151'
_citation_year  '1986'
_citation_title  'High temperature X-ray study of single crystal stishovitesynthesized with Li2WO4 as fluxSample: T = 200 C'
loop_
_publ_author_name
  'Endo S.'
  'Akai T.'
  'Akahama Y.'
  'Wakatsuki M.'
  'Nakamura T.'
  'Tomii Y.'
  'Koto K.'
  'Ito Y.'
  'Tokonami M.'
_chemical_formula_sum  'O2 Si'
_chemical_name_mineral  'Stishovite'
_symmetry_space_group_name_H-M 'P 42/m n m'
_space_group_IT_number 136
_space_group_crystal_system 'tetragonal'
loop_
_symmetry_equiv_pos_as_xyz
   'x, y, z'
   '-y+0.5, x+0.5, z+0.5'
   '-x, -y, z'
   'y+0.5, -x+0.5, z+0.5'
   'x+0.5, -y+0.5, -z+0.5'
   '-x+0.5, y+0.5, -z+0.5'
   'y, x, -z'
   '-y, -x, -z'
   '-x, -y, -z'
   'y+0.5, -x+0.5, -z+0.5'
   'x, y, -z'
   '-y+0.5, x+0.5, -z+0.5'
   '-x+0.5, y+0.5, z+0.5'
   'x+0.5, -y+0.5, z+0.5'
   '-y, -x, z'
   'y, x, z'
_cell_length_a        4.18650
_cell_length_b        4.18650
_cell_length_c        2.66840
_cell_angle_alpha    90.0000
_cell_angle_beta     90.0000
_cell_angle_gamma    90.0000
loop_
_atom_site_label
_atom_site_fract_x
_atom_site_fract_y
_atom_site_fract_z
_atom_site_occupancy
_atom_site_B_iso_or_equiv
si      0.000   0.000   0.000    1.00000    0.250
o      0.306   0.306   0.000    1.00000    0.330
_cell_measurement_wavelength    1.541874
_cell_measurement_radiation   'x-rays'
_cell_measurement_temperature    473.100000
_exptl_crystal_density_diffrn    4.267000
loop_
_pd_peak_d_spacing
_pd_peak_intensity
     2.960303       1000.00
     2.250188        248.81
     2.093250          6.82
     1.982031        397.50
     1.872260        148.40
     1.532632        580.24
     1.480151        195.07
     1.334200         99.95
     1.323888         62.39
     1.294357         12.90
     1.236603        262.34
     1.216368        101.91
     1.185949         21.50
     1.161126          4.65
     1.125094         11.17
     1.086541         26.01
     1.064695         29.05
     1.046625         35.32
     1.015375         24.71
##############################################################################
###                            Comments                                    ###
##############################################################################
###   Diffraction pattern calculated by Match!. 
###   I/Ic calculated by Match!. 
###   Space group has been derived from given symmetry operations. 
##############################################################################


