##############################################################################
###               Crystal structure data exported by Match!                ###
##############################################################################
###                           Data published by:                           ###
###                                                                        ###
###               COD (Crystallography Open Database)
##############################################################################
data_9013569
_citation_journal_full    'American Mineralogist'
_citation_journal_volume  '94'
_citation_page_first  '451'
_citation_page_last   '460'
_citation_year  '2009'
_citation_title  'Molecular conformation and anion configuration variations for As4S4 andAs4Se4 in an anion-substituted solid solution Locality: synthetic Note:S1Se0-5'
loop_
_publ_author_name
  'Kyono A.'
_chemical_formula_sum  'As S'
_chemical_name_mineral  'Realgar'
_symmetry_space_group_name_H-M 'P 1 21/n 1'
_space_group_IT_number 14
_space_group_crystal_system 'monoclinic'
loop_
_symmetry_equiv_pos_as_xyz
   'x, y, z'
   '-x+0.5, y+0.5, -z+0.5'
   '-x, -y, -z'
   'x+0.5, -y+0.5, z+0.5'
_cell_length_a        9.34530
_cell_length_b       13.58850
_cell_length_c        6.59730
_cell_angle_alpha    90.0000
_cell_angle_beta    106.4598
_cell_angle_gamma    90.0000
loop_
_atom_site_label
_atom_site_fract_x
_atom_site_fract_y
_atom_site_fract_z
_atom_site_occupancy
_atom_site_B_iso_or_equiv
as      0.121   -0.021   0.764    1.00000    2.033
as      0.424   0.139   0.856    1.00000    2.019
as      0.321   0.127   0.178    1.00000    1.988
as      0.039   0.161   0.715    1.00000    2.167
s      0.345   -0.006   0.701    1.00000    2.210
s      0.214   -0.023   0.116    1.00000    2.139
s      0.239   0.226   0.640    1.00000    2.400
s      0.107   0.210   0.052    1.00000    2.439
_cell_measurement_wavelength    1.541874
_cell_measurement_radiation   'x-rays'
_exptl_crystal_density_diffrn    3.538000
loop_
_pd_peak_d_spacing
_pd_peak_intensity
     7.481576         78.93
     6.794250         57.15
     6.037127        413.79
     5.735683        442.44
     5.517129        259.58
     5.414301       1000.00
     4.630219        100.43
     4.591958         21.41
     4.512933         11.95
     4.481159          0.57
     4.350278          0.01
     4.255721         44.40
     4.075415        213.75
     4.042549         29.40
     3.804521         38.67
     3.740788         71.88
     3.682979         51.07
     3.623123          5.47
     3.616560         92.10
     3.397125          4.95
     3.224696         24.81
     3.197602         10.99
     3.185611        307.64
     3.176583        244.44
     3.163467        417.34
     3.159384         30.27
     3.107837         16.12
     3.081075         65.35
     3.056412        327.03
     3.018564          1.07
     2.992981        197.85
     2.981913         67.39
     2.961096        229.36
     2.960591          0.49
     2.946733        150.76
     2.930669        504.69
     2.917758         15.78
     2.867841         86.95
     2.787362        109.29
     2.758564         14.06
     2.734749        120.37
     2.731014        409.93
     2.707151         96.16
     2.694080        140.25
     2.661905          2.39
     2.658933         59.17
     2.639735          2.77
     2.600756        166.73
     2.593544         21.54
     2.548030          9.13
     2.533563         21.56
     2.520359        123.48
     2.511879         17.13
     2.497080          2.29
     2.493859        133.81
     2.478177        155.17
     2.446972         94.84
     2.408237         43.93
     2.399575         89.56
     2.363342         65.82
     2.349830          0.28
     2.347785         16.76
     2.338787          0.06
     2.323747          7.23
     2.315110          5.00
     2.302212         26.09
     2.296471          0.25
     2.295979         13.54
     2.293036          0.12
     2.272146          0.58
     2.264750        133.00
     2.263890          1.74
     2.256466          0.20
     2.243376         49.80
     2.240579         19.07
     2.231880        110.82
     2.210728         20.80
     2.203988         19.26
     2.196348        118.77
     2.195730         94.45
     2.175139         31.03
     2.168208         68.20
     2.152897          2.07
     2.136803          2.77
     2.136039         96.90
     2.132262          6.23
     2.131605        113.43
     2.127860         47.64
     2.120456         41.27
     2.110127         40.66
     2.095279          0.91
     2.089864          0.45
     2.084416          1.95
     2.084027         28.84
     2.071930          1.20
     2.061448          0.20
     2.057029         46.95
     2.047907          4.22
     2.046958         17.63
     2.037707         41.59
     2.031149          5.66
     2.030941          2.52
     2.021274         25.93
     2.019720          0.09
     2.014174          0.88
     2.012376         19.96
     2.010317         20.80
     2.008304          2.76
     2.000965         10.03
     1.990665         12.44
     1.985513         44.63
     1.976266         21.49
     1.948430          6.86
     1.934335          3.94
     1.932551         31.53
     1.931986          0.65
     1.929519          4.92
     1.926045          2.23
     1.921467          2.24
     1.915029         14.49
     1.911894          4.55
     1.902261          9.27
     1.898828          5.10
     1.897221          6.97
     1.870501         19.99
     1.870394          7.56
     1.869060         18.89
     1.865486         48.04
     1.865324          3.83
     1.860406         83.27
     1.857806        121.86
     1.855828         10.26
     1.851626         27.18
     1.848028          3.04
     1.845541         13.84
     1.844432          5.90
     1.841489         72.84
     1.839043          3.16
     1.821742          0.00
     1.819645        105.34
     1.818473          0.94
     1.811562          4.38
     1.808280         17.15
     1.804767         17.91
     1.802114        100.75
     1.797454         13.65
     1.791774         28.81
     1.788010          3.89
     1.787730         62.80
     1.781262          0.62
     1.778911         22.91
     1.777105          2.57
     1.777069          3.69
     1.768887         46.78
     1.767316         12.46
     1.765902         17.65
     1.753868         15.75
     1.752057          1.18
     1.747866         18.07
     1.733196          5.86
     1.733163         17.68
     1.731394         48.14
     1.728799          4.28
     1.727745         22.79
     1.714966         15.81
     1.708235        116.26
     1.698563         43.39
     1.697658         60.39
     1.690163          5.22
     1.688372          0.85
     1.683485         42.85
     1.680937        120.08
     1.679395         31.07
     1.675404         89.86
     1.671881          5.89
     1.669949          3.55
     1.668855         12.87
     1.666732         29.36
     1.666703          5.24
     1.666347          0.27
     1.666148         29.38
     1.662111         28.00
     1.654542          2.49
     1.644995         23.19
     1.640474          2.73
     1.638644         22.01
     1.637570         58.95
     1.635079          4.96
     1.633072          4.27
     1.632733         14.45
     1.627753         15.66
     1.627384          9.08
     1.624203          8.86
     1.623993         30.63
     1.617268          0.06
     1.615145          0.31
     1.612723          0.96
     1.612348         13.18
     1.609208          0.22
     1.609155          5.65
     1.599738         14.05
     1.598801          1.90
     1.598041          8.93
     1.597990         39.06
     1.593462          0.02
     1.593069          2.35
     1.592806          4.89
     1.588291          6.94
     1.586627          0.84
     1.585639          4.87
     1.585342          1.69
     1.585317          6.59
     1.582039         16.16
     1.581734          0.03
     1.579692         47.22
     1.578381          0.75
     1.576680         28.50
     1.575917          0.12
     1.571125          6.59
     1.566852          0.01
     1.565886          4.62
     1.565838         16.52
     1.562436         15.24
     1.555143          7.91
     1.553918         18.89
     1.547868         24.98
     1.546185          0.06
     1.545567          0.03
     1.543406          1.39
     1.541354          1.34
     1.540754          8.30
     1.540537          6.03
     1.540014          7.04
     1.530653          5.17
     1.528881          3.95
     1.528206          0.27
     1.521033          0.04
     1.520782         18.58
     1.518633         23.46
     1.516420         44.65
     1.516355          2.14
     1.516311          5.59
     1.509282         42.98
     1.508423          0.40
     1.506593          5.88
     1.505208         39.27
     1.504311         20.24
     1.500057         24.42
     1.496490         18.38
     1.496336          6.47
     1.496315          0.69
     1.493720          0.77
     1.493301          4.94
     1.493228          2.87
     1.491421          2.70
     1.490956          0.96
     1.488854          5.31
     1.484776          0.43
     1.484696          5.53
     1.482386         12.86
     1.480548         11.19
     1.480295          0.29
     1.478379         29.41
     1.476581          6.29
     1.476305          0.52
     1.475835          2.96
     1.473367          9.27
     1.471304         39.13
     1.470862          1.13
     1.468596          1.98
     1.467156          0.67
     1.465334         64.97
     1.464722          1.81
     1.463483          0.00
     1.458879          4.38
     1.458673          7.59
     1.454524          6.89
     1.454295         15.04
     1.454256         43.06
     1.452809         10.26
     1.450093          0.29
     1.448012         13.95
     1.445676         18.03
     1.444929          6.92
     1.443319         14.23
     1.441543          0.27
     1.436596          0.58
     1.434293          2.91
     1.433921          7.73
     1.431883          1.18
     1.430803         39.43
     1.428278         18.25
     1.423545          0.43
     1.418574          0.03
     1.416270          0.23
     1.416174          6.28
     1.415534          0.04
     1.414411          3.21
     1.412991         13.17
     1.407277         15.91
     1.405531         12.36
     1.405514          1.04
     1.403632          4.44
     1.397126          2.28
     1.395536          0.29
     1.395341         11.48
     1.394193          2.68
     1.393742          4.83
     1.393681          2.10
     1.391464          5.02
     1.391413         10.16
     1.384674          0.30
     1.384641          0.67
     1.379282          0.84
     1.377229          0.04
     1.374322          0.09
     1.374225          0.00
     1.374178          1.70
     1.372559          1.84
     1.372233         24.16
     1.370207          3.19
     1.370081          1.68
     1.370033         25.40
     1.369167          0.42
     1.367375          0.48
     1.367346          7.37
     1.367054          3.76
     1.365507          4.23
     1.364236          0.45
     1.362660          2.61
     1.362597          1.86
     1.362373          0.65
     1.358850          1.19
     1.358472          3.64
     1.353675          0.26
     1.353575          5.07
     1.350337         12.90
     1.350117          0.29
     1.349177          0.05
     1.347516          0.24
     1.347040          3.12
     1.346411          0.89
     1.343637          2.21
     1.343496          0.76
     1.342559          2.83
     1.336534          0.58
     1.336489          1.96
     1.334789          1.01
     1.333671          0.07
     1.332052         12.27
     1.330952          0.59
     1.330308          5.28
     1.329658          3.59
     1.329466         28.23
     1.328554         12.48
     1.327868          0.00
     1.325684          4.08
     1.325146          5.16
     1.323979          0.07
     1.323330          0.00
     1.322865          3.30
     1.319867          0.37
     1.319463         11.56
     1.318229          1.83
     1.316929          0.18
     1.316914          0.24
     1.315118          1.29
     1.313308          1.10
     1.313283         10.39
     1.311783          0.02
     1.311754          1.11
     1.310947         18.31
     1.309027          0.00
     1.305577          0.00
     1.305519          0.91
     1.305447          4.49
     1.305199          2.40
     1.304637          0.18
     1.302996          3.41
     1.301135          1.33
     1.300378          5.26
     1.300005          2.66
     1.299593          0.08
     1.299220          2.73
     1.298928          0.01
     1.298000          1.82
     1.296772          3.45
     1.295260          8.49
     1.294922          3.31
     1.293456          0.05
     1.293415          0.87
     1.291034          0.52
     1.284923          2.54
     1.282432          0.04
     1.282289          5.55
     1.282121          1.89
     1.281763          1.30
     1.279574          9.79
     1.276758         13.11
     1.276397          0.96
     1.276328          0.79
     1.274685          0.60
     1.274015          0.01
     1.271498          0.43
     1.271242          2.95
     1.270222          0.05
     1.268174          0.64
     1.267066          2.36
     1.266805          4.41
     1.266781          1.76
     1.264913          4.35
     1.261512          0.80
     1.261358          0.20
     1.260616         11.81
     1.260180          0.04
     1.259936          0.46
     1.259468          0.16
     1.259279          0.75
     1.258186          9.23
     1.257030          0.03
     1.255940          7.15
     1.254992          0.57
     1.254504          0.21
     1.254169          1.48
     1.253589          0.78
     1.252854          0.81
     1.252405          1.91
     1.252086          0.01
     1.248540          1.30
     1.246929          0.01
     1.245686          0.29
     1.244650          2.62
     1.244207          1.35
     1.243996          0.89
     1.243738          8.56
     1.243702          2.41
     1.243545          1.73
     1.243133          0.22
     1.241666          2.00
     1.239672          2.49
     1.239088          0.01
     1.238882          0.74
     1.238858          0.85
     1.238717          0.63
     1.237178         14.31
     1.237172          0.25
     1.236907          1.40
     1.234004          0.19
     1.233928          9.15
     1.233541          0.00
     1.232937          1.55
     1.232930          0.87
     1.232925          7.81
     1.232057          1.99
     1.229943          0.00
     1.227660          1.14
     1.226425          7.14
     1.226214          0.02
     1.223748          3.98
     1.223486          4.25
     1.223040          2.21
     1.219338         10.00
     1.218723          0.06
     1.218676         16.62
     1.218557          0.03
     1.218369          3.30
     1.218299          0.07
     1.218123          0.56
     1.213947          0.50
     1.213263          1.32
     1.212425          2.96
     1.212310          0.49
     1.211611          7.11
     1.210242          3.50
     1.207708          8.56
     1.207425          0.03
     1.207381          0.42
     1.206529          0.02
     1.205520          1.61
     1.204118          0.66
     1.202687          6.56
     1.202643          0.76
     1.201950          7.34
     1.201801          0.01
     1.200765          4.06
     1.200745          1.91
     1.199787          1.63
     1.198067          0.07
     1.194841          3.10
     1.192906          5.12
     1.192824          5.91
     1.191519          0.18
     1.191005          0.10
     1.190896          6.22
     1.190610          1.58
     1.190193          2.40
     1.190111          9.52
     1.190079          0.00
##############################################################################
###                            Comments                                    ###
##############################################################################
###   Diffraction pattern calculated by Match!. 
###   I/Ic calculated by Match!. 
##############################################################################


