##############################################################################
###               Crystal structure data exported by Match!                ###
##############################################################################
###                           Data published by:                           ###
###                                                                        ###
###               COD (Crystallography Open Database)
##############################################################################
data_2104872
_citation_journal_full    'Acta Crystallographica Section B'
_citation_journal_volume  '66(6)'
_citation_page_first  '603'
_citation_page_last   '614'
_citation_year  '2010'
_citation_title  'Crystal chemistry of transition metal diarsenates <i>M</i>~2~As~2~O~7~ (<i>M</i> = Mn, Co, Ni, Zn): variants of the thortveitite structure'
loop_
_publ_author_name
  'Weil Matthias'
  'St?ger Berthold'
_chemical_formula_sum  'As2 Co2 O7'
_chemical_name_common  'Dicobalt(II) diarsenate(V)'
_symmetry_space_group_name_H-M 'P -1'
_space_group_IT_number 2
_space_group_crystal_system 'triclinic'
loop_
_symmetry_equiv_pos_as_xyz
   'x, y, z'
   '-x, -y, -z'
_cell_length_a       32.99200
_cell_length_b        5.33320
_cell_length_c        8.97750
_cell_angle_alpha    58.4720
_cell_angle_beta    149.0110
_cell_angle_gamma   126.9760
_cell_formula_units_Z 5
loop_
_atom_site_label
_atom_site_fract_x
_atom_site_fract_y
_atom_site_fract_z
_atom_site_occupancy
_atom_site_B_iso_or_equiv
as      0.276   0.032   0.563    1.00000    0.621
as      0.474   0.006   0.597    1.00000    0.536
as      0.672   -0.057   0.623    1.00000    0.598
as      0.870   0.020   0.575    1.00000    0.590
as      1.076   -0.001   0.607    1.00000    0.568
co      0.063   -0.378   0.009    1.00000    0.716
co      0.262   -0.401   0.041    1.00000    0.740
co      0.462   -0.373   -0.007    1.00000    0.724
co      0.662   -0.368   0.018    1.00000    0.663
co      0.866   -0.380   0.005    1.00000    0.834
o      0.176   0.015   0.269    1.00000    0.789
o      0.374   -0.005   0.280    1.00000    1.026
o      0.579   -0.020   0.280    1.00000    0.789
o      0.772   0.038   0.269    1.00000    0.708
o      0.980   0.001   0.271    1.00000    0.866
o      0.295   0.185   0.395    1.00000    0.947
o      0.500   0.000   0.500    1.00000    3.395
o      0.878   0.015   0.410    1.00000    2.131
o      0.076   -0.331   -0.208    1.00000    0.866
o      0.285   -0.309   -0.296    1.00000    1.658
o      0.479   -0.322   -0.210    1.00000    0.947
o      0.676   -0.374   -0.172    1.00000    0.789
o      0.882   -0.304   -0.220    1.00000    1.104
o      -0.140   -0.324   0.209    1.00000    0.866
o      0.058   -0.342   0.228    1.00000    0.947
o      0.255   -0.285   0.205    1.00000    0.789
o      0.461   -0.333   0.222    1.00000    0.947
o      0.653   -0.320   0.208    1.00000    0.947
_cell_measurement_wavelength    1.541874
_cell_measurement_radiation   'x-rays'
_cell_measurement_temperature    295.000000
_exptl_crystal_density_diffrn    4.852000
_exptl_crystal_colour            'purple'
loop_
_pd_peak_d_spacing
_pd_peak_intensity
    15.918092          1.84
     7.959046          0.31
     7.595521         25.17
     7.203957          1.95
     6.552476          2.43
     5.862352         10.36
     5.313989          0.06
     5.306031          0.29
     5.188821         21.41
     5.065809         71.33
     5.015637          0.31
     4.621551          3.99
     4.528856         14.15
     4.458816         14.65
     4.453673          0.22
     4.386034          0.01
     4.259959        204.88
     4.198243         14.14
     4.120932          0.53
     4.114702          0.49
     4.091492         13.84
     4.006329          3.56
     3.979523          1.08
     3.799832         40.88
     3.799114          0.05
     3.797761          8.00
     3.797392         10.19
     3.786237          1.19
     3.724017          0.67
     3.715597          2.28
     3.633082         13.36
     3.602206          5.84
     3.601979          0.60
     3.596693          0.40
     3.382592          1.77
     3.361036          5.44
     3.306209          7.04
     3.282901          4.57
     3.276238          9.25
     3.222492          0.22
     3.214702         10.97
     3.210963          0.05
     3.208926         59.01
     3.183618        495.31
     3.160311        882.49
     3.126694        396.51
     3.104998        833.03
     3.084225          0.01
     3.072316          5.14
     2.978410       1000.00
     2.974241          5.36
     2.969512          7.74
     2.931176          1.83
     2.924538          1.81
     2.898338          1.73
     2.883093          2.61
     2.871794          4.87
     2.870306          0.94
     2.868741          0.00
     2.816593          0.04
     2.813177          6.27
     2.751182          0.26
     2.717579          0.00
     2.713879          6.70
     2.711280          0.63
     2.698216          2.60
     2.656994          1.57
     2.653015          0.40
     2.651350          5.24
     2.627817          0.01
     2.621382        104.96
     2.613714          0.06
     2.605509          3.29
     2.605165          7.84
     2.600369          0.72
     2.594411        332.81
     2.573401         97.40
     2.563641          0.01
     2.548945          0.00
     2.532904        255.32
     2.531840          7.53
     2.517815          1.63
     2.507819          0.02
     2.506762          1.82
     2.504440          5.25
     2.502184         12.85
     2.490678          1.46
     2.489510          2.08
     2.473118          2.55
     2.454546         35.21
     2.447296          6.74
     2.427610         51.49
     2.414897          3.46
     2.410236          1.28
     2.408569          1.16
     2.401740          7.55
     2.401319          1.75
     2.391693          0.41
     2.389514        152.01
     2.380854          1.64
     2.377160          2.32
     2.373127          0.70
     2.369308          0.06
     2.360687         44.14
     2.360171         61.23
     2.358077          0.05
     2.355083          2.13
     2.341606          0.13
     2.332190          5.02
     2.323654         14.03
     2.310776         62.43
     2.305665          1.19
     2.299630          0.13
     2.295287          0.37
     2.291781          1.72
     2.274845        116.42
     2.274013          0.07
     2.269432          4.89
     2.265104          1.45
     2.264478         63.27
     2.264428          3.41
     2.260582         11.96
     2.255107          0.79
     2.242796          0.21
     2.229408          3.07
     2.226837          0.36
     2.226675         18.48
     2.219651          0.02
     2.217378          4.93
     2.215265          4.96
     2.207295         35.91
     2.202369          0.35
     2.193230          3.65
     2.193017          0.31
     2.192236          1.58
     2.189864          1.06
     2.184159          0.35
     2.170030          0.27
     2.166891          1.97
     2.151041         37.52
     2.147254          1.27
     2.144234          1.07
     2.129979        109.37
     2.122475         15.52
     2.110536          0.45
     2.109160          4.26
     2.107248          0.68
     2.106702          0.61
     2.106661          2.78
     2.103276          0.05
     2.099121          1.81
     2.095855          0.11
     2.087216         28.03
     2.083086         40.07
     2.078216          0.14
     2.071581          1.21
     2.066661        106.90
     2.066207          0.04
     2.064776          0.06
     2.062752         52.30
     2.060466          1.45
     2.059804          0.18
     2.057351          3.02
     2.056738          0.68
     2.046438          0.06
     2.045746          1.02
     2.027440          0.93
     2.024587          2.06
     2.023479          0.11
     2.020480          1.15
     2.016273         11.43
     2.003165          0.34
     1.989762          0.45
     1.989089          0.79
     1.984876         39.19
     1.977084          0.21
     1.965110          1.65
     1.963999         47.67
     1.963082          0.04
     1.955704          2.19
     1.954117          0.17
     1.947578         77.95
     1.941385          2.33
     1.930638          3.43
     1.925722          5.15
     1.921523         39.57
     1.918233          2.82
     1.916771          0.25
     1.913066          0.01
     1.911422          2.08
     1.910951          0.70
     1.903949          3.53
     1.902394          0.00
     1.901450          0.02
     1.899916        149.84
     1.899557        108.08
     1.898880          1.52
     1.898696          4.25
     1.893119          0.24
     1.887477          1.40
     1.882734          0.55
     1.879885          2.91
     1.874913         16.72
     1.873728          0.67
     1.873638          0.90
     1.869890          0.88
     1.862009          0.07
     1.861061          0.58
     1.860883          0.39
     1.859853         14.06
     1.859116          0.03
     1.857798          1.53
     1.854175          0.22
     1.853359          0.49
     1.849647          2.38
     1.838971          6.69
     1.836915          0.02
     1.835604          6.00
     1.820663          0.20
     1.816541          0.01
     1.816300          0.05
     1.804819          0.34
     1.804367          0.72
     1.801103          1.07
     1.800989          3.71
     1.798469          4.43
     1.798347          0.03
     1.797742          1.81
     1.797254         13.04
     1.796500          1.92
     1.795387         14.72
     1.791398          1.48
     1.784481          0.42
     1.777776          0.29
     1.774117          0.01
     1.771330          0.20
     1.770800          0.09
     1.768677          0.02
     1.766959          2.37
     1.766230          0.01
     1.764893          0.09
     1.763678          0.16
     1.763375          4.89
     1.761528         44.94
     1.757266          0.39
     1.756616          0.36
     1.754596          1.10
     1.754559         32.58
     1.754104         22.96
     1.750924          3.75
     1.749057          0.86
     1.746480          0.03
     1.744188          2.29
     1.742912          0.23
     1.742247         69.04
     1.741971         32.03
     1.741631          3.61
     1.740100          1.23
     1.738691          0.00
     1.737598          0.87
     1.736777          0.33
     1.735134          0.06
     1.731646          0.18
     1.729607          9.40
     1.725735          0.28
     1.724486          0.03
     1.722984         51.26
     1.722636         13.50
     1.719320          0.98
     1.714206          0.02
     1.713686          0.18
     1.711787          3.49
     1.711552          3.88
     1.710453          0.31
     1.699476          0.76
     1.698086         50.36
     1.695448          7.48
     1.695111         23.07
     1.691296          0.33
     1.690222          1.23
     1.688603         12.61
     1.687586          0.21
     1.686559          0.71
     1.686090          0.15
     1.683583          0.04
     1.683574          0.39
     1.682470          3.05
     1.680518          0.66
     1.678922          1.84
     1.678117          0.60
     1.673006          1.24
     1.672222          1.25
     1.671879          0.15
     1.669896        209.56
     1.667126          2.92
     1.666512          1.62
     1.665938          0.01
     1.663791          0.45
     1.662438          2.04
     1.661748          4.43
     1.660102          0.55
     1.658072          1.92
     1.657608          0.63
     1.657248          0.10
     1.657213         25.11
     1.654130          2.11
     1.653104          1.32
     1.646351          3.86
     1.645874          0.03
     1.645112          0.10
     1.641451          0.62
     1.638119          1.48
     1.637664          3.66
     1.636822         22.41
     1.634137          0.29
     1.633247        146.93
     1.629280          2.91
     1.628314          0.07
     1.623688          7.99
     1.620889         12.28
     1.620018          2.33
     1.619604          1.27
     1.617583          0.12
     1.613679          0.15
     1.612368         14.15
     1.611246          0.01
     1.609461          0.42
     1.608391          1.62
     1.607351          1.78
     1.607088          1.63
     1.605481          0.00
     1.604896          1.01
     1.604463        120.00
     1.603108          0.78
     1.601176          0.13
     1.600698          2.84
     1.599270          2.43
     1.597978          0.57
     1.597440          0.86
     1.593793          1.67
     1.593110         11.70
     1.592425          0.27
     1.591809         19.66
     1.588912          0.90
     1.585788          2.84
     1.581682          0.15
     1.581466          7.28
     1.581207          2.02
     1.580156          5.76
     1.569916          5.23
     1.568534          0.01
     1.568525         12.48
     1.567853          0.41
     1.565904          0.59
     1.563347         26.25
     1.562263          1.57
     1.560152          6.33
     1.558885          2.54
     1.557957          1.56
     1.555882          2.79
     1.553412         20.29
     1.553222          0.01
     1.552499          9.75
     1.551900          0.58
     1.550024          1.75
     1.547096          3.43
     1.545269          0.58
     1.544188          0.22
     1.544169          0.02
     1.542112          6.03
     1.540517         23.27
     1.539296         68.89
     1.539219          0.35
     1.538525         82.83
     1.537091          0.17
     1.536158          0.00
     1.534162         19.79
     1.533563         62.74
     1.532239          0.09
     1.531858          0.65
     1.529926          0.16
     1.526741          0.04
     1.526112          0.20
     1.523014          2.40
     1.521277          0.01
     1.521146          0.14
     1.519104         39.01
     1.518866         52.40
     1.517967          0.45
     1.515849          0.10
     1.515261          0.35
     1.514010          0.14
     1.513102          0.95
     1.511636          0.53
     1.509839          0.11
     1.509807          0.94
     1.509619          3.48
     1.509324         72.27
     1.507269         57.89
     1.505355          0.65
     1.504848          0.43
     1.503641          8.70
     1.503285         34.13
     1.502445          0.05
     1.501279          5.50
     1.498184          0.06
     1.496530          0.02
     1.495650         69.56
     1.495235          1.80
     1.495141          0.33
     1.494708          2.12
     1.493973          2.64
     1.492711          1.68
     1.492267          3.19
     1.490789          0.21
     1.489285          2.26
     1.489205         52.08
     1.487121          0.65
     1.486272          0.15
     1.485812          0.00
     1.484756          0.06
     1.484558          0.40
     1.483689          0.34
     1.480788          0.01
     1.480612          0.56
     1.480451          0.70
     1.479764          0.23
     1.479501          1.90
     1.471036          0.69
     1.469335          3.76
     1.468447          0.07
     1.467026          2.34
     1.466358          0.00
     1.465588          1.03
     1.465468          0.85
     1.462641          0.00
     1.462411          0.04
     1.462269          1.03
     1.462011          0.31
     1.461181          0.40
     1.460945          0.00
     1.460201          1.49
     1.459842         17.51
     1.458414         19.05
     1.456978          0.43
     1.456417          0.15
     1.455936          1.27
     1.455119          0.84
     1.454409          0.57
     1.453848          0.47
     1.450959          1.01
     1.450055          0.92
     1.449169          1.21
     1.447099          0.00
     1.446046          3.62
     1.441546          3.34
     1.440791         17.39
     1.440562          2.28
     1.438908          0.03
     1.438261          0.02
     1.435897          0.66
     1.435797          0.01
     1.435678         15.67
     1.435518          0.21
     1.435213          0.00
     1.435153          2.73
     1.434371          0.08
     1.433665          3.71
     1.430467          6.73
     1.430391          1.85
     1.429335          0.23
     1.428099          0.24
     1.421179          0.50
     1.421119          0.13
     1.421094          1.62
     1.421017          0.76
     1.421007          1.80
     1.420156          1.84
     1.419986         88.62
     1.419302          0.01
     1.417499          4.69
     1.415600          0.93
     1.414415          0.48
     1.412665          3.06
     1.412209          0.02
     1.410955          3.18
     1.410518         50.92
     1.408774          0.58
     1.408297          0.08
     1.406588          4.01
     1.402740          0.10
     1.402156         38.26
     1.400665         14.64
     1.400489         26.65
     1.399414          1.99
     1.395917          7.20
     1.395811         31.37
     1.393730          0.17
     1.393357          2.39
     1.392580          0.80
##############################################################################
###                            Comments                                    ###
##############################################################################
###   Diffraction pattern calculated by Match!. 
###   I/Ic calculated by Match!. 
##############################################################################


