##############################################################################
###               Crystal structure data exported by Match!                ###
##############################################################################
###                           Data published by:                           ###
###                                                                        ###
###               COD (Crystallography Open Database)
##############################################################################
data_9006302
_citation_journal_full    'Physics and Chemistry of Minerals'
_citation_journal_volume  '21'
_citation_page_first  '269'
_citation_page_last   '284'
_citation_year  '1994'
_citation_title  'Framework silica structures generated using simulated annealingwith a potential energy function based on an H6Si2O7 moleculeSample: 19'
loop_
_publ_author_name
  'Boisen M. B.'
  'Gibbs G. V.'
  'Bukowinski M. S. T.'
_chemical_formula_sum  'O2 Si'
_chemical_name_common  'Silica'
_symmetry_space_group_name_H-M 'P 1 m 1'
_space_group_IT_number 6
_space_group_crystal_system 'monoclinic'
loop_
_symmetry_equiv_pos_as_xyz
   'x, y, z'
   'x, -y, z'
_cell_length_a        4.70820
_cell_length_b        5.52820
_cell_length_c        5.00640
_cell_angle_alpha    90.0000
_cell_angle_beta    107.8346
_cell_angle_gamma    90.0000
loop_
_atom_site_label
_atom_site_fract_x
_atom_site_fract_y
_atom_site_fract_z
_atom_site_occupancy
_atom_site_B_iso_or_equiv
si      0.000   0.500   0.000    1.00000    1.000
si      0.537   0.500   0.538    1.00000    1.000
si      0.951   0.000   0.217    1.00000    1.000
si      0.545   0.000   0.558    1.00000    1.000
o      0.303   0.000   0.257    1.00000    1.000
o      0.467   0.747   0.687    1.00000    1.000
o      0.907   0.500   0.651    1.00000    1.000
o      0.830   0.254   0.058    1.00000    1.000
o      0.876   0.000   0.515    1.00000    1.000
o      0.360   0.500   0.192    1.00000    1.000
_cell_measurement_wavelength    1.541874
_cell_measurement_radiation   'x-rays'
_exptl_crystal_density_diffrn    3.217000
loop_
_pd_peak_d_spacing
_pd_peak_intensity
     5.528200          0.47
     4.765816         74.00
     4.481946        156.38
     3.918340       1000.00
     3.609636        315.94
     3.481494          9.11
     3.196771        241.58
     2.857308        244.64
     2.764100        336.32
     2.538306         89.04
     2.435851         32.22
     2.391049        181.88
     2.382908        237.21
     2.352667         22.52
     2.319945         97.59
     2.258666        365.71
     2.240973        239.92
     2.229059         57.76
     2.188273         44.33
     2.139210         37.07
     2.076822         11.65
     1.986648         32.91
     1.959170          3.23
     1.878964         58.10
     1.846634         11.03
     1.842733          0.12
     1.827497         42.63
     1.824202         35.03
     1.804818         22.64
     1.779013         10.75
     1.776994         12.69
     1.740747         74.51
     1.732324          6.83
     1.718729         23.36
     1.704306          1.38
     1.667535         30.22
     1.666667          4.55
     1.598385         81.28
     1.595724         67.16
     1.588605         14.30
     1.569355         12.41
     1.553928         19.35
     1.548613         13.63
     1.536983          4.28
     1.526815         26.45
     1.522522         14.63
     1.509701         31.41
     1.493982         17.92
     1.487275         22.49
     1.480816         14.65
     1.469585         13.29
     1.457714         11.21
     1.442936         10.34
     1.442244          8.28
     1.436207         21.58
     1.428654         30.99
     1.427282         48.99
     1.423326          2.76
     1.383211         17.14
     1.382050        107.58
     1.377334         91.76
     1.370943          6.92
     1.364731         56.74
     1.343282         19.15
     1.342286          5.56
     1.330637         28.00
     1.327364          2.31
     1.320687          4.54
     1.315632          3.13
     1.315231         35.57
     1.314291         51.67
     1.309718         35.35
     1.306113         19.31
     1.303353         44.01
     1.296408          1.30
     1.279518          1.49
     1.271118          7.66
     1.269153         43.73
     1.250472          1.56
     1.244154         28.85
     1.236083         23.05
     1.228176          9.91
     1.219659          2.71
     1.217925         10.88
     1.203212          8.65
     1.202047          3.51
     1.195524         28.07
     1.194783         13.05
     1.191454          9.72
     1.189402          5.39
     1.187638         43.40
     1.187331         11.97
     1.180912         38.79
     1.180311          6.02
     1.176333         35.42
     1.173775          0.02
     1.164710          0.26
     1.160498          3.47
     1.159973          7.68
     1.157346          9.50
     1.148179          6.12
     1.141508          5.09
     1.139308         25.07
     1.135250         10.06
     1.129333          0.28
     1.129071          7.92
     1.120696          4.56
     1.120486          3.37
     1.117924          5.82
     1.114529         35.07
     1.113320         10.02
     1.112243          1.03
     1.105640          0.03
     1.101598          7.20
     1.099929         12.92
     1.098354          3.68
     1.098156          0.62
     1.094136         12.89
     1.090392          1.04
     1.085528          0.15
     1.080397         15.20
     1.077036          4.12
     1.073460          0.11
     1.072772          4.78
     1.070524          0.66
     1.069605          9.73
     1.065590          4.25
     1.065187          4.54
     1.064090          4.19
     1.063864          2.39
     1.055077          6.07
     1.053126          1.68
     1.042690          6.48
     1.038578          0.25
     1.038411          3.21
     1.037190          5.58
     1.034724          1.13
     1.031839          1.66
     1.031135          3.17
     1.027680          2.47
     1.023162          1.14
     1.016055          2.86
     1.014523          8.18
     1.012415          9.87
     1.010403          1.40
     1.006781          3.87
##############################################################################
###                            Comments                                    ###
##############################################################################
###   Diffraction pattern calculated by Match!. 
###   I/Ic calculated by Match!. 
###   Space group has been derived from given symmetry operations. 
##############################################################################


