##############################################################################
###               Crystal structure data exported by Match!                ###
##############################################################################
###                           Data published by:                           ###
###                                                                        ###
###               COD (Crystallography Open Database)
##############################################################################
data_9008960
_citation_journal_full    'Crystal Structures'
_citation_journal_volume  '1'
_citation_page_first  '85'
_citation_page_last   '237'
_citation_year  '1963'
_citation_title  'Second edition. Interscience Publishers, New York, New YorkSample known as yellow plumbous oxide'
loop_
_publ_author_name
  'Wyckoff R. W. G.'
_chemical_formula_sum  'O Pb'
_chemical_name_common  'Lead(II) oxide'
_symmetry_space_group_name_H-M 'P b m a'
_space_group_IT_number 57
_space_group_crystal_system 'orthorhombic'
loop_
_symmetry_equiv_pos_as_xyz
   'x, y, z'
   '-x+0.5, -y, z'
   'x+0.5, -y+0.5, -z'
   '-x, y+0.5, -z'
   '-x, -y, -z'
   'x+0.5, y, -z'
   '-x+0.5, y+0.5, z'
   'x, -y+0.5, z'
_cell_length_a        5.89100
_cell_length_b        4.77500
_cell_length_c        5.48900
_cell_angle_alpha    90.0000
_cell_angle_beta     90.0000
_cell_angle_gamma    90.0000
loop_
_atom_site_label
_atom_site_fract_x
_atom_site_fract_y
_atom_site_fract_z
_atom_site_occupancy
_atom_site_B_iso_or_equiv
pb      -0.021   0.250   0.231    1.00000    1.000
o      0.089   0.250   -0.131    1.00000    1.000
_cell_measurement_wavelength    1.541874
_cell_measurement_radiation   'x-rays'
_exptl_crystal_density_diffrn    9.602000
loop_
_pd_peak_d_spacing
_pd_peak_intensity
     5.489000         39.97
     4.015912         30.88
     3.073446       1000.00
     2.945500        259.39
     2.744500        202.65
     2.595421          7.13
     2.506909         11.32
     2.487769          1.74
     2.387500        165.71
     2.280338          0.14
     2.206288         13.05
     2.189362          6.47
     2.052218          8.95
     2.007956        147.58
     1.854733        127.76
     1.850959         15.49
     1.848914         23.58
     1.829667         10.16
     1.801303        110.99
     1.757132          3.97
     1.747329          1.04
     1.724174        170.37
     1.722574          0.88
     1.640915        155.89
     1.596990          1.83
     1.554221          9.07
     1.536723        117.34
     1.514530          6.42
     1.479685        103.32
     1.477904          0.27
     1.472750         19.49
     1.461824         19.81
     1.452255          8.60
     1.422439          0.31
     1.410041          1.01
     1.407332          9.79
     1.400298          1.98
     1.372250         14.97
     1.363238          0.07
     1.356842          0.00
     1.340739          2.79
     1.338637          4.11
     1.336470          0.16
     1.327408          1.67
     1.302542          9.27
     1.297711         24.86
     1.288945         51.11
     1.287009         13.92
     1.253454         21.55
     1.252288         14.37
     1.247324          3.73
     1.243884         20.96
     1.221997          0.37
     1.206262         45.93
     1.203713          4.11
     1.193750         14.46
     1.189733         17.95
     1.176670         45.33
     1.167628          5.11
     1.166483          0.58
     1.166188          0.20
     1.151961          8.79
     1.147261          1.79
     1.144266          1.01
     1.140169         31.45
     1.127356          2.18
     1.124814          0.72
     1.119835         28.58
     1.115516          0.87
     1.112003          0.13
     1.106344         19.85
     1.103144         28.07
     1.097800          2.85
     1.094848          7.20
     1.094681         18.72
     1.084533          0.65
     1.082653          0.50
     1.080990          4.01
     1.079221          0.14
     1.076257          0.12
     1.060618          0.04
     1.055853          1.97
     1.052669         25.74
     1.037507         12.98
     1.034069          2.70
     1.028677          4.77
     1.026109         29.47
     1.024482         24.69
     1.023509          6.77
     1.017542          1.10
##############################################################################
###                            Comments                                    ###
##############################################################################
###   Diffraction pattern calculated by Match!. 
###   I/Ic calculated by Match!. 
###   Space group has been derived from given symmetry operations. 
##############################################################################


