##############################################################################
###               Crystal structure data exported by Match!                ###
##############################################################################
###                           Data published by:                           ###
###                                                                        ###
###               COD (Crystallography Open Database)
##############################################################################
data_9013427
_citation_journal_full    'Mineralogical Magazine'
_citation_journal_volume  '64'
_citation_page_first  '569'
_citation_page_last   '576'
_citation_year  '2000'
_citation_title  'Crystal structure of the high-pressure monoclinic phase-II of cristobalite,SiO2 Locality: synthetic Note: P = 3.5 GPa, refinement by constrainedRietveld analysis'
loop_
_publ_author_name
  'Dove M. T.'
  'Craig M. S.'
  'Keen D. A.'
  'Marshall W. G.'
  'Redfern S. A. T.'
  'Trachenko K. O.'
  'Tucker M. G.'
_chemical_formula_sum  'O2 Si'
_chemical_name_mineral  'Cristobalite'
_symmetry_space_group_name_H-M 'P 1 21/c 1'
_space_group_IT_number 14
_space_group_crystal_system 'monoclinic'
loop_
_symmetry_equiv_pos_as_xyz
   'x, y, z'
   '-x, y+0.5, -z+0.5'
   '-x, -y, -z'
   'x, -y+0.5, z+0.5'
_cell_length_a        8.37690
_cell_length_b        4.60200
_cell_length_c        9.05830
_cell_angle_alpha    90.0000
_cell_angle_beta    124.9390
_cell_angle_gamma    90.0000
loop_
_atom_site_label
_atom_site_fract_x
_atom_site_fract_y
_atom_site_fract_z
_atom_site_occupancy
_atom_site_B_iso_or_equiv
si      0.372   0.731   0.214    1.00000    1.000
si      0.121   0.970   0.840    1.00000    1.000
o      0.186   0.865   0.035    1.00000    0.347
o      0.300   0.591   0.328    1.00000    0.347
o      0.530   0.979   0.330    1.00000    0.347
o      0.927   0.809   0.684    1.00000    0.347
_cell_measurement_wavelength    1.541874
_cell_measurement_radiation   'x-rays'
_cell_measurement_pressure       3500000.000000
_exptl_crystal_density_diffrn    2.788000
loop_
_pd_peak_d_spacing
_pd_peak_intensity
     6.867066          0.90
     4.525696          1.40
     3.949852         53.85
     3.911702        282.65
     3.848525       1000.00
     3.822929        802.43
     3.712826        738.45
     3.433533          0.34
     3.226790         70.37
     3.082361        155.84
     3.028611        679.74
     2.952247        343.71
     2.889641         57.71
     2.788320        165.61
     2.751975        207.74
     2.685372        126.85
     2.496198         56.22
     2.467392         52.78
     2.384742         25.93
     2.319376          2.89
     2.301315         74.86
     2.301000          3.25
     2.289022          6.60
     2.263963         42.45
     2.262848        153.76
     2.240944         36.98
     2.204597        136.72
     2.197897        105.01
     2.181776          8.18
     2.179907          8.01
     2.174557          7.58
     2.124653         11.01
     2.075516          6.36
     2.051114         98.40
     2.049493          0.47
     2.030642          3.50
     2.012491         11.06
     2.011233         19.48
     1.997304         21.87
     1.974926          3.85
     1.966111         92.99
     1.955851          4.34
     1.928995          7.76
     1.924262         15.21
     1.911465          2.04
     1.891997          1.98
     1.889198         34.07
     1.856413          0.54
     1.842921        130.29
     1.828698         52.80
     1.819260          0.28
     1.808018          9.57
     1.782310         19.05
     1.775315         58.00
     1.774731         30.97
     1.757923          2.69
     1.747290          9.85
     1.739528         12.27
     1.723227         20.82
     1.721615          8.50
     1.716766         45.83
     1.713011          5.37
     1.685280         12.85
     1.679485         10.00
     1.664801          0.19
     1.641615         36.75
     1.626355         16.49
     1.622801         73.97
     1.613395          5.36
     1.608488          6.07
     1.599937          8.27
     1.584769          3.72
     1.580455          5.15
     1.578725         28.94
     1.573970         24.99
     1.562689         69.36
     1.560982         33.92
     1.546186          0.37
     1.541181         26.60
     1.539667         20.51
     1.533415          1.57
     1.524923         16.38
     1.514306          1.64
     1.508565          1.61
     1.506385          2.55
     1.504414          0.01
     1.502279          0.05
     1.498411          0.54
     1.497101          5.20
     1.493299         11.06
     1.485637         14.13
     1.480137         11.60
     1.476124         36.07
     1.466081          6.36
     1.461520          0.82
     1.459897          6.20
     1.452812          1.33
     1.444820         42.32
     1.438892         22.59
     1.438603          0.59
     1.433510         16.91
     1.433311         19.20
     1.424973         13.80
     1.422060          5.14
     1.419648          1.99
     1.417758         39.57
     1.413793         16.71
     1.413356          0.42
     1.410746         19.64
     1.401436         81.30
     1.400575         44.64
     1.394160          5.87
     1.392961          0.28
     1.375988          4.73
     1.373413          5.02
     1.370623          4.69
     1.363062          2.17
     1.361695         22.68
     1.358314         50.88
     1.354191          7.20
     1.346986          0.15
     1.344029          6.73
     1.342686         41.98
     1.340650         16.42
     1.336374         26.49
     1.334276          1.79
     1.331991          3.16
     1.328725         21.14
     1.328544          4.86
     1.328103         71.24
     1.325079          4.02
     1.322574          1.97
     1.321239         32.14
     1.316617          0.83
     1.316056         26.05
     1.305735          1.58
     1.305166         28.38
     1.303901         20.36
     1.301784          6.57
     1.301722         21.88
     1.300198         35.37
     1.288946         13.95
     1.287296          0.04
     1.282842          4.33
     1.279476          4.50
     1.276580          0.39
     1.274310          2.68
     1.269740          4.57
     1.265069          7.70
     1.261602          8.21
     1.255778          6.60
     1.253775          1.86
     1.253495          9.50
     1.251219          5.45
     1.248099          2.87
     1.247798         11.60
     1.243979         15.97
     1.243713          1.97
     1.237609         23.72
     1.235728          5.64
     1.235599          3.98
     1.233696         22.02
     1.233628         18.56
     1.232851         33.69
     1.219715          8.31
     1.215565          8.42
     1.212832          2.21
     1.201647          5.18
     1.200390         25.06
     1.199496          2.22
     1.196913          0.02
     1.195145         21.98
     1.194959          4.50
     1.194089         12.54
     1.192371          0.01
     1.189961          0.15
     1.188613          2.57
     1.185793          8.61
     1.182517         39.58
     1.179314         23.99
     1.171870          4.63
     1.168967          2.59
     1.168597         24.85
     1.163616          3.13
     1.159688          0.39
     1.158487          1.56
     1.156604         13.99
     1.155815          0.14
     1.154262          2.10
     1.152003          3.38
     1.150657          0.04
     1.150500          6.94
     1.150218         17.15
     1.144511          0.14
     1.143880          1.83
     1.140792          1.97
     1.137859          4.83
     1.136935          0.18
     1.135354          9.32
     1.134685          2.03
     1.133862          7.33
     1.131981          1.88
     1.131424          3.98
     1.131266          3.61
     1.127055          6.42
     1.126612          0.36
     1.123431         15.91
     1.121000         12.37
     1.120817          6.60
     1.120472          4.77
     1.120376          6.87
     1.120023          6.51
     1.119583          1.81
     1.118153          0.03
     1.115924         14.19
     1.115034          0.43
     1.112638          0.21
     1.111894          0.64
     1.111074         14.39
     1.110678          3.39
     1.109446          6.43
     1.108704          3.79
     1.106144          0.20
     1.104800         11.34
     1.103319         15.43
     1.102299         16.15
     1.102213          0.07
     1.100174          5.61
     1.099423          0.92
     1.098948         16.91
     1.098706          4.23
     1.093927          1.31
     1.091382          2.30
     1.090888          5.82
     1.089954         14.10
     1.088257         21.05
     1.087279          0.46
     1.086609          0.39
     1.086017          0.00
     1.084992          1.90
     1.080795          0.16
     1.078546         12.09
     1.077743          5.83
     1.075597         12.56
     1.072880          0.31
     1.070734          2.96
     1.070560          5.88
     1.069474          2.34
     1.069331         12.42
     1.067192          0.03
     1.067004          1.35
     1.063524          0.05
     1.062327          0.02
     1.060482          9.54
     1.058146          1.12
     1.057530          0.89
     1.056932          0.12
     1.055802          0.31
     1.055553          3.52
     1.052124          1.83
     1.049786          0.02
     1.043306          2.42
     1.042870          1.66
     1.037758          0.18
     1.035911          0.05
     1.035106          2.14
     1.034662          0.27
     1.033700          3.98
     1.032837          5.55
     1.031728          0.78
     1.031724          0.25
     1.030608          2.83
     1.030393         15.52
     1.027960          0.01
     1.027489          3.08
     1.027454          0.14
     1.025557          8.54
     1.024746          0.37
     1.023230          0.50
     1.020996          0.71
     1.020124          6.89
     1.018743          9.55
     1.018357          0.31
     1.016940          9.06
     1.016450         14.20
     1.015321          2.24
     1.012338          1.77
     1.011696         11.18
     1.010623          0.13
     1.010332          0.24
     1.009537          0.60
     1.009533          1.44
     1.007058          0.01
##############################################################################
###                            Comments                                    ###
##############################################################################
###   Diffraction pattern calculated by Match!. 
###   I/Ic calculated by Match!. 
###   Space group has been derived from given symmetry operations. 
##############################################################################


