##############################################################################
###               Crystal structure data exported by Match!                ###
##############################################################################
###                           Data published by:                           ###
###                                                                        ###
###               COD (Crystallography Open Database)
##############################################################################
data_9007164
_citation_journal_full    'Physics and Chemistry of Minerals'
_citation_journal_volume  '30'
_citation_page_first  '167'
_citation_page_last   '176'
_citation_year  '2003'
_citation_title  'Compression mechanisms of coesiteSample: X4P4, P = 2.84 GPa'
loop_
_publ_author_name
  'Angel R. J.'
  'Shaw C. S. J.'
  'Gibbs G. V.'
_chemical_formula_sum  'O2 Si'
_chemical_name_mineral  'Coesite'
_symmetry_space_group_name_H-M 'C 1 2/c 1'
_space_group_IT_number 15
_space_group_crystal_system 'monoclinic'
loop_
_symmetry_equiv_pos_as_xyz
   'x, y, z'
   'x+0.5, y+0.5, z'
   '-x, y, -z+0.5'
   '-x+0.5, y+0.5, -z+0.5'
   '-x, -y, -z'
   '-x+0.5, -y+0.5, -z'
   'x, -y, z+0.5'
   'x+0.5, -y+0.5, z+0.5'
_cell_length_a        7.05000
_cell_length_b       12.29070
_cell_length_c        7.13860
_cell_angle_alpha    90.0000
_cell_angle_beta    120.5870
_cell_angle_gamma    90.0000
loop_
_atom_site_label
_atom_site_fract_x
_atom_site_fract_y
_atom_site_fract_z
_atom_site_occupancy
_atom_site_B_iso_or_equiv
si      0.138   0.109   0.071    1.00000    0.390
si      0.508   0.157   0.543    1.00000    0.400
o      0.000   0.000   0.000    1.00000    0.679
o      0.500   0.112   0.750    1.00000    0.709
o      0.258   0.127   0.932    1.00000    0.610
o      0.316   0.102   0.326    1.00000    0.730
o      0.024   0.212   0.474    1.00000    0.640
_cell_measurement_wavelength    1.541874
_cell_measurement_radiation   'x-rays'
_cell_measurement_pressure       2840000.000000
_exptl_crystal_density_diffrn    2.998000
loop_
_pd_peak_d_spacing
_pd_peak_intensity
     6.145350         34.72
     5.507990          4.34
     5.441766          2.76
     4.345407         19.00
     3.427673         37.03
     3.411546         76.65
     3.395634        195.74
     3.379931        384.96
     3.080662        536.19
     3.072659       1000.00
     3.057335        454.83
     3.034523         96.42
     2.753995          8.08
     2.748281         33.80
     2.748272         47.58
     2.720883         64.68
     2.691201         56.49
     2.667908        159.16
     2.316077         60.71
     2.292798         31.98
     2.283141          4.98
     2.278353         16.47
     2.275304          2.36
     2.268857         43.47
     2.261175         31.43
     2.183882         13.90
     2.175528         22.76
     2.172704         12.50
     2.159094         29.42
     2.151012          2.78
     2.048450          0.18
     2.027835         12.15
     2.025689          4.15
     2.024482          1.15
     2.015701         18.31
     2.014511         57.92
     2.011215          2.79
     2.005858          0.22
     1.996156         17.75
     1.943329          0.07
     1.943321          0.36
     1.859808          4.08
     1.839380          8.84
     1.835997         50.20
     1.813922         59.40
     1.784642         91.15
     1.771043         65.05
     1.762231          1.28
     1.757736          0.04
     1.713836          0.12
     1.705773          4.74
     1.704411         30.32
     1.704407         19.33
     1.697817         51.09
     1.697119          4.78
     1.694439          4.38
     1.693959         15.53
     1.692483          7.20
     1.689966         16.46
     1.688587          9.34
     1.686648         30.25
     1.685409          0.55
     1.682784          1.83
     1.680860         70.42
     1.679643          1.07
     1.668281          4.00
     1.640129         93.40
     1.626067          3.28
     1.580832          1.45
     1.578665          6.85
     1.576073          0.56
     1.575505         22.89
     1.570791         20.12
     1.567667         25.56
     1.562043         21.21
     1.557447          7.39
     1.543228         24.76
     1.540331         22.17
     1.540272          0.02
     1.536337         26.73
     1.536329          8.04
     1.528668         13.92
     1.528608          5.03
     1.525731         40.94
     1.517261         17.15
     1.494112          0.01
     1.490466         15.38
     1.490459          2.09
     1.488758          2.64
     1.478218          0.83
     1.473029          8.29
     1.448469          0.13
     1.409076          6.75
     1.408349         11.79
     1.405703          0.57
     1.404179          0.34
     1.403065          5.99
     1.399028          3.95
     1.397525          7.61
     1.396422         14.92
     1.395724          0.53
     1.394321          8.63
     1.389184          1.06
     1.388883          9.69
     1.385948         19.62
     1.381185          0.14
     1.376997          2.86
     1.374854          1.16
     1.374141          3.63
     1.374136          1.08
     1.370678          3.13
     1.364479          1.19
     1.360441          0.01
     1.345600          0.49
     1.340368          9.15
     1.337112         70.15
     1.335915         47.30
     1.334578         26.88
     1.333954         30.53
     1.333276          0.64
     1.332396         21.33
     1.332321         37.98
     1.328513          6.89
     1.327649          1.09
     1.326027         16.40
     1.322952         29.17
     1.320414         23.06
     1.318304          2.22
     1.316332         40.92
     1.309032         37.96
     1.301850          6.05
     1.294782         34.39
     1.287099          2.80
     1.283675         12.22
     1.277978         24.12
     1.276899          4.86
     1.275464         49.36
     1.273859         29.43
     1.273548          2.19
     1.272959          3.03
     1.270464          5.53
     1.261527          0.02
     1.234134          0.08
     1.231112          2.04
     1.229070          3.95
     1.229068         29.12
     1.229066          5.00
     1.228564          2.58
     1.226326          0.08
     1.226118          9.73
     1.225314          7.26
     1.220150          3.42
     1.219237         23.38
     1.218747          0.67
     1.216321          0.01
     1.215312          0.29
     1.215111          5.63
     1.213143         23.71
     1.207933          9.91
     1.205202          0.24
     1.205196          5.87
     1.184226         19.61
     1.180042          1.57
     1.179986         16.18
     1.178666          0.58
     1.176741         16.30
     1.176269         16.35
     1.175375         25.53
     1.174303          0.23
     1.174064         18.15
     1.168195          0.57
     1.166999          0.07
     1.166883          3.52
     1.166534          0.08
     1.165604          0.14
     1.164330          7.69
     1.163805         16.39
     1.160528          0.89
     1.158038          3.04
     1.157662          0.00
     1.156760          8.99
     1.155511          0.04
     1.154266          1.19
     1.153924         10.48
     1.150221          1.38
     1.148135          7.73
     1.147643          0.34
     1.146399          0.07
     1.142558          2.57
     1.141571          1.30
     1.141162          0.28
     1.141158          2.80
     1.140396          0.11
     1.139177          3.23
     1.137652          0.98
     1.137182          0.48
     1.135637          0.58
     1.134429          0.84
     1.131878          2.97
     1.130588          1.28
     1.128607          1.46
     1.126644          6.49
     1.125830         22.56
     1.112258          6.84
     1.104304          0.22
     1.103371         11.04
     1.102090          0.13
     1.101598          4.02
     1.099405          1.83
     1.098869          0.26
     1.097346          1.44
     1.096243          1.46
     1.096196          6.75
     1.093595          9.15
     1.092160          6.62
     1.091941          0.02
     1.090869          0.80
     1.088353          8.22
     1.087764          0.26
     1.087743          4.13
     1.086416          7.66
     1.086352          0.01
     1.085760          0.16
     1.083612          2.16
     1.083324          1.84
     1.080540          1.82
     1.079547          0.14
     1.077219          0.40
     1.075506          0.24
     1.074205         12.32
     1.070917         12.36
     1.070284          1.96
     1.068268          0.62
     1.067958         12.00
     1.067778          6.60
     1.067289         12.01
     1.066310          1.88
     1.065372          4.16
     1.064846          4.13
     1.063871          0.18
     1.063384          0.44
     1.062897          0.01
     1.060660          0.23
     1.058126          0.59
     1.057780          1.00
     1.053917          3.56
     1.053915          2.09
     1.053376          1.18
     1.041786         12.92
     1.038807          0.00
     1.034561          3.54
     1.028117          0.08
     1.026887          0.00
     1.024225          0.10
     1.024220          1.52
     1.019112          2.67
     1.014778          0.03
     1.013917          0.07
     1.013096          3.07
     1.012844          0.02
     1.012510          9.70
     1.012241          2.23
     1.011508         10.98
     1.010724          0.70
     1.010289          3.17
     1.010284          0.04
     1.009026          3.02
     1.008648          5.43
     1.008099         15.63
     1.007851         13.47
     1.007788          1.46
     1.007255          8.08
##############################################################################
###                            Comments                                    ###
##############################################################################
###   Diffraction pattern calculated by Match!. 
###   I/Ic calculated by Match!. 
###   Space group has been derived from given symmetry operations. 
##############################################################################


