##############################################################################
###               Crystal structure data exported by Match!                ###
##############################################################################
###                           Data published by:                           ###
###                                                                        ###
###               COD (Crystallography Open Database)
##############################################################################
data_9006298
_citation_journal_full    'Physics and Chemistry of Minerals'
_citation_journal_volume  '21'
_citation_page_first  '269'
_citation_page_last   '284'
_citation_year  '1994'
_citation_title  'Framework silica structures generated using simulated annealingwith a potential energy function based on an H6Si2O7 moleculeSample: 15'
loop_
_publ_author_name
  'Boisen M. B.'
  'Gibbs G. V.'
  'Bukowinski M. S. T.'
_chemical_formula_sum  'O2 Si'
_chemical_name_common  'Silica'
_symmetry_space_group_name_H-M 'P 1'
_space_group_IT_number 1
_space_group_crystal_system 'triclinic'
loop_
_symmetry_equiv_pos_as_xyz
   'x, y, z'
_cell_length_a        5.09800
_cell_length_b        5.29540
_cell_length_c        6.95990
_cell_angle_alpha   110.9196
_cell_angle_beta    107.5582
_cell_angle_gamma    83.9309
loop_
_atom_site_label
_atom_site_fract_x
_atom_site_fract_y
_atom_site_fract_z
_atom_site_occupancy
_atom_site_B_iso_or_equiv
si      0.135   0.299   0.234    1.00000    1.000
si      0.618   0.284   0.595    1.00000    1.000
si      0.552   0.369   0.044    1.00000    1.000
si      0.827   0.722   0.457    1.00000    1.000
o      0.107   0.612   0.385    1.00000    1.000
o      0.842   0.042   0.600    1.00000    1.000
o      0.267   0.263   0.042    1.00000    1.000
o      0.595   0.667   0.228    1.00000    1.000
o      0.817   0.184   0.123    1.00000    1.000
o      0.342   0.160   0.397    1.00000    1.000
o      0.753   0.538   0.577    1.00000    1.000
o      0.531   0.392   0.815    1.00000    1.000
_cell_measurement_wavelength    1.541874
_cell_measurement_radiation   'x-rays'
_exptl_crystal_density_diffrn    2.385000
loop_
_pd_peak_d_spacing
_pd_peak_intensity
     6.233160        686.47
     4.946328       1000.00
     4.860477        318.19
     4.747777        353.55
     4.503301         17.06
     3.831437        533.61
     3.470705        273.49
     3.462969         40.56
     3.393723        405.95
     3.354652         73.17
     3.172926        125.42
     3.116580        105.93
     3.095963        371.81
     3.082192         99.92
     3.046172        165.11
     2.984796         90.07
     2.628552         17.27
     2.580850         43.32
     2.519435         74.84
     2.473164        100.65
     2.434857         21.25
     2.430239         31.42
     2.380031         36.74
     2.373888         15.61
     2.363671         65.36
     2.339945          1.21
     2.338910         67.77
     2.304345         51.27
     2.282080         17.05
     2.276538         69.69
     2.270450         27.65
     2.251651          9.18
     2.206214         98.76
     2.204473          8.74
     2.202238         18.96
     2.183119         55.43
     2.179266         80.70
     2.143224         15.02
     2.130599         31.05
     2.077720          0.27
     2.073586          3.93
     2.068454        111.45
     2.007745         43.57
     1.996711         20.99
     1.972864         25.85
     1.972854          0.13
     1.954979          5.59
     1.950250         11.65
     1.930394          2.74
     1.915718          5.23
     1.899076         12.33
     1.882309         13.94
     1.862037         19.02
     1.840573          3.24
     1.837839          6.41
     1.813123         20.89
     1.770087         31.24
     1.753750          3.84
     1.749149          2.12
     1.740121         11.15
     1.737673         36.93
     1.735352          8.99
     1.731485         51.08
     1.721789          7.26
     1.716843          5.89
     1.708243         19.11
     1.706707          2.13
     1.696861         27.32
     1.689270          1.59
     1.688325          7.80
     1.687954         17.28
     1.677326          1.24
     1.666949         19.78
     1.666940          1.53
     1.658178          8.08
     1.655696          0.47
     1.655234         10.58
     1.648776         21.92
     1.647766         22.83
     1.644853          1.14
     1.640948          6.54
     1.624106         25.51
     1.620159         20.36
     1.615166         16.53
     1.609809         12.76
     1.606691         30.53
     1.589776         12.87
     1.586463         38.32
     1.582592          9.79
     1.562447          9.54
     1.560327          4.25
     1.558290          4.09
     1.556065         12.21
     1.549306         10.29
     1.547981          7.90
     1.545838         22.48
     1.541096          3.79
     1.540687          1.01
     1.538654          9.78
     1.523086          6.28
     1.520186         10.59
     1.519618          0.40
     1.515056         31.35
     1.510904         11.85
     1.505331          0.59
     1.501100          2.72
     1.495732          6.75
     1.492398         32.55
     1.480570          1.25
     1.479006          4.40
     1.474797          4.19
     1.473877          2.14
     1.469673         11.98
     1.457815          3.93
     1.451094         14.49
     1.442556          7.23
     1.442071          2.70
     1.441810         48.59
     1.438359         16.01
     1.432574          8.52
     1.418032          4.38
     1.401936         23.33
     1.396602          2.34
     1.395487         11.94
     1.394403          5.33
     1.394395          7.32
     1.386583          7.36
     1.384329          0.71
     1.384114          2.61
     1.377962          5.96
     1.375386          0.59
     1.374675          3.00
     1.370291          4.65
     1.369656          2.17
     1.369244          0.96
     1.365821          4.50
     1.362992         30.98
     1.358712         18.99
     1.357354         25.13
     1.356636          5.81
     1.353864          4.52
     1.347354          3.15
     1.343151         41.46
     1.342062          2.86
     1.339534          8.42
     1.335628          0.48
     1.328086         24.65
     1.327224         10.86
     1.320953          9.81
     1.314276          9.33
     1.312439          0.36
     1.312096          2.84
     1.308034          9.73
     1.308014         10.13
     1.307823         21.61
     1.301107          6.74
     1.300757         25.70
     1.299683          1.27
     1.299377         26.92
     1.294815          2.74
     1.290425         12.11
     1.286393          3.93
     1.285193          0.12
     1.283097         15.39
     1.281886          3.28
     1.277146          0.29
     1.275129         20.14
     1.271407         21.65
     1.268469          0.21
     1.267200         14.75
     1.264704          3.59
     1.263205          8.64
     1.262608          8.48
     1.262286          9.68
     1.261908          8.77
     1.260389          3.79
     1.259718          5.83
     1.246632         18.30
     1.242888          3.74
     1.239343         24.90
     1.237295          5.99
     1.236582          0.82
     1.232753          2.45
     1.232133          0.74
     1.231635         16.67
     1.230498         10.43
     1.223261         13.82
     1.221833          1.38
     1.221481          6.72
     1.219805          6.09
     1.218741          4.51
     1.217429          0.98
     1.215463          0.56
     1.215119         16.75
     1.214832         18.98
     1.214602          0.03
     1.212665          3.30
     1.210552          8.97
     1.210276          3.91
     1.209281          6.24
     1.208508          5.40
     1.208082          1.42
     1.203547          6.32
     1.199045          4.72
     1.197798         16.18
     1.197767          0.70
     1.197392          1.71
     1.190016          6.78
     1.187597         12.25
     1.186944          2.83
     1.182798          4.40
     1.182367          9.60
     1.181835          1.93
     1.181395          8.04
     1.180644          0.02
     1.179424          1.99
     1.178335          7.74
     1.178329         17.84
     1.175254          0.47
     1.169973          1.38
     1.169455          2.78
     1.162743          3.35
     1.161232          6.56
     1.160077          2.12
     1.159399          2.48
     1.156902          3.61
     1.155889          0.70
     1.154323          7.49
     1.152206          6.96
     1.152172          0.76
     1.150871          0.51
     1.145261          4.88
     1.144118          0.74
     1.141040          4.98
     1.140571          1.91
     1.138269          1.03
     1.135225          2.93
     1.134498          5.39
     1.133703          2.87
     1.133319          0.71
     1.133103          3.22
     1.132582          1.17
     1.131241          2.86
     1.129846          0.23
     1.128495          0.87
     1.125825          2.37
     1.124589          2.93
     1.124003          1.83
     1.121137          1.69
     1.120895          3.20
     1.120800          0.50
     1.118217          4.13
     1.116818          3.83
     1.110894          4.29
     1.110266          4.47
     1.108956          4.89
     1.103109          3.93
     1.103107          0.53
     1.102236          0.41
     1.101424          0.97
     1.101119         12.76
     1.100016          2.13
     1.098200          3.97
     1.097295          2.12
     1.097012          2.46
     1.095662          6.32
     1.095028          1.94
     1.094691          6.90
     1.093902          5.66
     1.091560          3.35
     1.091538          1.52
     1.089856          3.31
     1.089633          3.83
     1.084922          1.61
     1.084804          0.64
     1.084612          3.34
     1.083087          1.53
     1.082316          1.04
     1.081226          1.68
     1.080610          4.35
     1.077431          0.39
     1.074117          0.28
     1.073633          2.81
     1.073404          2.63
     1.071612          8.18
     1.071481          0.99
     1.071467          0.63
     1.068462          3.30
     1.067306          0.81
     1.065299          2.54
     1.061147          0.68
     1.060234          2.31
     1.058769          0.11
     1.057642          3.13
     1.057256          0.72
     1.056709          5.41
     1.054739          0.49
     1.054674          3.21
     1.054670          3.84
     1.054534          0.22
     1.052755          0.69
     1.050177          6.20
     1.049420          1.98
     1.049407          2.44
     1.043918          3.16
     1.043656          3.48
     1.042720          3.29
     1.039235          1.46
     1.038860          4.77
     1.037166          1.49
     1.036793          1.40
     1.036219          1.20
     1.035905          2.20
     1.034227          1.02
     1.033448          1.09
     1.031988          1.24
     1.031982          1.00
     1.031081          2.62
     1.028372          1.14
     1.027397          1.22
     1.023671          0.59
     1.022276          2.26
     1.020187          2.65
     1.015768          0.22
     1.015391          0.40
     1.014866          3.86
     1.013460          1.04
     1.011695          1.20
     1.011643          2.57
     1.011392          1.87
     1.011387          0.45
     1.010995          4.97
     1.010502          4.60
     1.009532          2.57
     1.009155          6.78
     1.008316          1.05
##############################################################################
###                            Comments                                    ###
##############################################################################
###   Diffraction pattern calculated by Match!. 
###   I/Ic calculated by Match!. 
###   Space group has been derived from given symmetry operations. 
##############################################################################


