##############################################################################
###               Crystal structure data exported by Match!                ###
##############################################################################
###                           Data published by:                           ###
###                                                                        ###
###               COD (Crystallography Open Database)
##############################################################################
data_9000765
_citation_journal_full    'American Mineralogist'
_citation_journal_volume  '65'
_citation_page_first  '340'
_citation_page_last   '345'
_citation_year  '1980'
_citation_title  'The crystal structure of paulmooreite, Pb2[As2O5]: dimeric arsenite groups'
loop_
_publ_author_name
  'Araki T.'
  'Moore P. B.'
  'Brunton G. D.'
_chemical_formula_sum  'As2 O5 Pb2'
_chemical_name_mineral  'Paulmooreite'
_symmetry_space_group_name_H-M 'P 1 21/a 1'
_space_group_IT_number 14
_space_group_crystal_system 'monoclinic'
loop_
_symmetry_equiv_pos_as_xyz
   'x, y, z'
   '-x+0.5, y+0.5, -z'
   '-x, -y, -z'
   'x+0.5, -y+0.5, z'
_cell_length_a       13.58400
_cell_length_b        5.65000
_cell_length_c        8.55100
_cell_angle_alpha    90.0000
_cell_angle_beta    108.7800
_cell_angle_gamma    90.0000
loop_
_atom_site_label
_atom_site_fract_x
_atom_site_fract_y
_atom_site_fract_z
_atom_site_occupancy
_atom_site_B_iso_or_equiv
pb      0.879   0.348   0.859    1.00000    1.000
pb      0.199   0.653   0.650    1.00000    1.000
as      0.936   0.871   0.614    1.00000    1.000
as      0.129   0.129   0.884    1.00000    1.000
o      0.849   0.670   0.652    1.00000    1.000
o      0.864   0.124   0.623    1.00000    1.000
o      0.032   0.890   0.821    1.00000    1.000
o      0.206   0.053   0.760    1.00000    1.000
o      0.200   0.999   0.070    1.00000    1.000
_cell_measurement_wavelength    1.541874
_cell_measurement_radiation   'x-rays'
_exptl_crystal_density_diffrn    6.886000
loop_
_pd_peak_d_spacing
_pd_peak_intensity
     8.095759          2.26
     6.430405        201.05
     6.077574        159.49
     5.172828          0.26
     4.640119         11.68
     4.633235          2.62
     4.393350          0.07
     4.244397        283.18
     4.138063         15.43
     4.123461         13.44
     4.066325        183.17
     4.047879         54.29
     3.482721        184.77
     3.468226         78.62
     3.415153        104.21
     3.409299        251.92
     3.385335          2.45
     3.300427          2.79
     3.290541       1000.00
     3.215203        133.33
     3.038787        119.49
     3.019712        139.64
     3.015797         20.74
     3.004614        311.79
     2.903958        504.93
     2.892192         10.76
     2.835269         12.14
     2.825000         26.77
     2.794421        105.68
     2.759218        493.62
     2.704396        263.88
     2.698586          0.86
     2.676260        128.88
     2.668585         10.41
     2.667274          1.32
     2.660516         84.05
     2.586414          2.85
     2.561774         15.67
     2.558298         16.97
     2.534097         13.04
     2.530732          7.94
     2.501217        159.57
     2.448426        140.03
     2.444112          0.68
     2.439354          7.09
     2.435089          1.55
     2.380802          0.80
     2.376156          0.74
     2.358879         36.21
     2.356947         68.44
     2.346203          7.88
     2.340989          4.17
     2.332062          9.94
     2.320059         22.59
     2.316617          2.32
     2.287125          7.98
     2.274832          0.75
     2.259883         76.12
     2.243902         48.66
     2.215978        147.16
     2.211463          0.01
     2.209991          0.98
     2.196675         51.73
     2.169000          0.02
     2.164084        121.17
     2.143468          0.33
     2.137688          7.05
     2.122198          7.64
     2.098732         12.56
     2.098264          8.87
     2.091282          2.58
     2.085453          1.70
     2.069031          1.39
     2.061730          7.13
     2.059335          0.30
     2.047378         30.89
     2.033163         67.70
     2.025858          1.25
     2.023940        179.63
     2.004095          0.19
     2.001197          3.29
     1.999539          0.92
     1.999368         76.20
     1.977770         33.35
     1.973510         18.39
     1.958192          6.33
     1.955983        101.09
     1.953542         16.26
     1.951349          0.26
     1.924446         35.34
     1.913068         16.61
     1.906978         57.12
     1.905378         21.31
     1.904705          6.77
     1.901911          9.99
     1.897115         53.91
     1.894178         12.63
     1.872686         16.96
     1.865920          5.85
     1.863459         13.34
     1.834778          1.18
     1.834352          0.09
     1.827125         11.61
     1.821674         26.01
     1.819595          0.99
     1.816938          2.83
     1.809692          3.15
     1.807410          0.10
     1.807078          5.15
     1.801111          8.73
     1.798939          0.11
     1.797735          8.17
     1.786406          0.00
     1.773940         23.16
     1.764986         80.60
     1.764708         13.22
     1.760548        170.16
     1.757067          3.01
     1.747204          0.00
     1.741360          0.14
     1.734113          2.68
     1.732783         52.14
     1.730990          0.06
     1.727660         35.22
     1.724276         67.58
     1.723521         81.48
     1.716028         90.63
     1.708938          0.17
     1.707576          0.08
     1.707562         25.06
     1.705526          0.19
     1.704650          0.08
     1.703295          1.07
     1.692667         12.97
     1.692479          1.83
     1.691205         64.53
     1.688539         24.95
     1.683767         50.00
     1.683367          1.01
     1.679563          5.17
     1.666037         31.17
     1.663488        133.34
     1.650213          6.27
     1.646300          0.76
     1.645794         20.40
     1.645270         13.02
     1.643644         15.17
     1.638043         17.14
     1.634263         23.02
     1.632758          7.29
     1.631166         56.63
     1.625065          3.35
     1.621465          0.06
     1.619152          0.42
     1.613636         49.44
     1.613285          0.23
     1.609935         52.04
     1.609302         22.49
     1.607601          0.18
     1.605630          0.30
     1.600819          3.60
     1.597430          1.00
     1.594097         68.18
     1.590473          3.06
     1.589089          0.02
     1.587318          8.70
     1.584024          0.00
     1.582480         10.84
     1.580731        122.73
     1.573158          6.00
     1.568774          0.00
     1.567975          0.47
     1.567162         43.29
     1.563050          8.18
     1.556898         48.86
     1.556499          0.19
     1.554980         25.20
     1.547798         66.32
     1.546706          0.01
     1.546229          9.39
     1.545498          0.13
     1.544412          0.03
     1.540186          2.56
     1.526749         57.23
     1.520975          7.68
     1.519551          7.11
     1.519393          0.22
     1.518703          0.52
     1.517102          0.89
     1.509856          0.85
     1.507899          6.03
     1.504521          0.12
     1.502307          5.61
     1.501006          4.77
     1.499237          5.78
     1.491158          2.19
     1.487954         15.79
     1.467265          5.27
     1.464450          2.23
     1.462603          4.14
     1.461147          1.64
     1.460071          0.51
     1.457466          0.41
     1.456905         16.24
     1.451979          0.97
     1.450672          1.20
     1.446939         16.45
     1.446786          0.00
     1.446349          5.30
     1.446096          0.01
     1.444491          0.88
     1.443682          1.09
     1.443225          5.39
     1.442566          0.08
     1.442403         12.31
     1.440575          0.10
     1.438893         46.72
     1.433836          0.35
     1.429782          3.26
     1.426542          4.27
     1.424909          0.39
     1.424834         20.58
     1.417635          1.67
     1.417605         24.06
     1.416985          0.05
     1.415930          8.70
     1.415280          9.42
     1.414799          0.00
     1.413133          1.06
     1.412598          3.55
     1.412500         42.94
     1.409584         11.42
     1.405445         22.51
     1.405068          2.91
     1.404774          0.10
     1.404057         15.54
     1.403914         18.39
     1.397211          0.23
     1.391666          0.74
     1.391480          0.03
     1.385397         10.13
     1.385357          6.71
     1.381845         24.69
     1.381653          2.15
     1.379609          0.83
     1.379354          0.02
     1.378748          0.14
     1.375831          3.01
     1.375292          0.18
     1.375013         20.58
     1.374487          8.34
     1.372864         10.04
     1.362248          5.78
     1.358386          0.79
     1.357636          2.32
     1.356179          6.45
     1.355442          0.83
     1.353051          3.20
     1.352198          6.69
     1.349293          8.32
     1.348965          1.89
     1.348213          9.42
     1.348062          2.69
     1.346018          0.07
     1.345549          2.24
     1.345537         45.92
     1.345179          0.31
     1.344709          0.05
     1.344104          0.28
     1.341554          0.52
     1.341199          8.56
     1.341163          2.42
     1.340634          2.14
     1.340098          0.52
     1.338686          0.12
     1.338130          0.24
     1.336379          4.35
     1.334292          5.52
     1.333637          1.72
     1.330685          9.46
     1.330258          0.01
     1.325508          0.02
     1.320751         10.58
     1.319191         16.20
     1.318044          0.21
     1.316504          1.36
     1.315125          0.82
     1.315061          0.82
     1.313570         10.61
     1.312388         31.94
     1.312320          1.81
     1.307025         24.86
     1.306730         30.97
     1.305711         20.96
     1.304417          1.94
     1.303580          0.02
     1.302622          3.31
     1.302511          5.03
     1.301675          7.93
     1.300141          2.96
     1.299732         10.22
     1.298848          0.21
     1.296670          0.12
     1.296091          0.00
     1.293207         10.84
     1.291307          0.30
     1.289542          5.01
     1.289004         16.74
     1.286081          4.99
     1.280887          8.23
     1.280168          0.02
     1.279149          0.73
     1.275129          2.17
     1.272963          0.00
     1.272388         14.35
     1.267048          0.08
     1.266180         22.61
     1.265718          6.82
     1.265366          4.67
     1.264886         18.82
     1.264293          1.46
     1.264188          0.29
     1.263874          0.01
     1.258925          0.01
     1.257212          0.03
     1.256713          8.08
     1.255250          4.57
     1.255084          0.17
     1.254004          5.72
     1.253505          5.19
     1.253413          3.82
     1.253236          3.35
     1.253206         25.93
     1.252656          7.82
     1.252014         29.10
     1.251470          0.06
     1.251436          0.01
     1.250608          1.69
     1.249802          0.17
     1.248521          0.20
     1.246580         12.24
     1.245867          0.59
     1.243873          0.87
     1.242582          0.04
     1.241158          0.03
     1.238869          0.09
     1.238100          1.11
     1.236774          9.02
     1.236628          3.35
     1.235910          9.69
     1.232996          4.75
     1.230991          7.55
     1.229929         25.79
     1.228007          0.83
     1.227979         47.12
     1.227783          0.01
     1.224213          0.34
     1.222724          0.15
     1.222056          0.23
     1.221054          0.62
     1.220600         10.70
     1.219677          0.72
     1.219263         18.20
     1.217544          2.92
     1.215515          4.30
     1.213580         12.83
     1.211171          2.19
     1.209734          0.08
     1.208044          1.87
     1.207418         14.58
     1.205725          7.42
     1.204962         15.81
     1.200913          0.04
     1.199086          0.90
     1.198548          2.98
     1.197867          6.38
     1.197780          7.05
     1.196477         11.75
     1.195382          3.83
     1.194940          2.24
     1.193077          3.93
     1.192256          0.95
     1.191828          4.44
     1.190524          6.33
     1.190401          0.05
     1.188326          0.76
     1.188078          6.99
     1.186684          0.01
     1.185867          0.02
     1.184268          0.31
     1.183741          2.13
     1.182539          0.30
     1.181343          0.02
     1.180377          3.64
     1.180003          0.65
     1.179729          1.40
     1.179439          0.02
     1.178474          1.99
     1.177391          2.46
     1.177095          1.65
     1.174004          3.77
     1.173801          1.23
     1.173111          3.23
     1.173102          1.94
     1.172696          1.71
     1.170494          0.76
     1.169407         18.20
     1.167534          3.69
     1.166498          6.23
     1.166031          0.06
     1.165330          1.25
     1.164943          8.75
     1.161141          0.00
     1.160907          1.19
     1.160030         13.38
     1.159986         22.89
     1.158685          0.28
     1.158668          0.01
     1.158309         33.67
     1.157541          0.37
     1.156537          0.03
     1.156075          0.79
     1.155779          4.31
     1.155166          0.13
     1.144909          0.51
     1.143562          0.08
     1.140025          9.41
     1.138697          5.18
     1.138384         10.21
     1.138189          0.08
     1.137997          3.49
     1.137538          1.69
     1.137416          0.02
     1.136433         21.40
     1.135753          0.38
     1.135106         11.70
     1.133043          1.10
     1.132624          1.46
     1.131422          1.99
     1.130942          3.50
     1.130234          0.27
     1.129942         12.63
     1.128943         13.02
     1.128445          0.03
     1.126967         13.66
     1.126334         16.81
     1.125663          1.81
     1.125584          4.53
     1.125013          0.01
     1.122853          3.35
     1.121951          3.20
     1.120484          0.52
     1.120255          2.69
     1.119810          0.16
     1.119805         12.54
     1.119449          3.00
     1.119248          0.12
     1.119151          0.07
     1.117932          2.03
     1.117418          2.10
     1.116546          0.65
     1.115979          4.83
     1.115184          4.43
     1.115111          0.07
     1.114613          1.92
     1.113178          1.28
     1.112947          8.73
     1.112740          1.99
     1.111471          0.92
     1.110960          0.92
     1.110747          0.15
     1.110737          9.45
     1.110676          0.01
     1.109972          3.14
     1.109406         33.93
     1.108277          5.51
     1.108001         11.83
     1.107989          0.01
     1.107060          0.19
     1.106590          3.64
     1.105731          6.82
     1.104995          6.22
     1.104599          2.27
     1.103891          2.36
     1.101715          0.30
     1.100741          3.57
     1.100464          0.52
     1.100142          0.00
     1.098782          2.00
     1.098406          0.00
     1.098381         13.25
     1.098338          1.78
     1.097406          0.98
     1.097083          0.63
     1.096847          3.75
     1.094833          0.03
     1.094380          4.27
     1.093905          0.01
     1.092678          0.23
##############################################################################
###                            Comments                                    ###
##############################################################################
###   Diffraction pattern calculated by Match!. 
###   I/Ic calculated by Match!. 
##############################################################################


