##############################################################################
###               Crystal structure data exported by Match!                ###
##############################################################################
###                           Data published by:                           ###
###                                                                        ###
###               COD (Crystallography Open Database)
##############################################################################
data_5000208
_citation_journal_full    'ur Kristallographie''
_citation_journal_volume  '199'
_citation_page_first  '67'
_citation_page_last   '74'
_citation_year  '1992'
_citation_title  'Neutron single-crystal refinement of cerussite, PbCO~3~, and comparison withother aragonite-type carbonates'
loop_
_publ_author_name
  'Chevrier G.'
  'Giester G.'
  'Heger G.'
  'Jarosch D.'
  'Wildner M.'
  'Zemann J.'
_chemical_formula_sum  'C O3 Pb'
_chemical_name_mineral  'Cerussite'
_chemical_name_common  'Lead carbonate'
_symmetry_space_group_name_H-M 'P m c n'
_space_group_IT_number 62
_space_group_crystal_system 'orthorhombic'
loop_
_symmetry_equiv_pos_as_xyz
   'x, y, z'
   '-x+0.5, -y+0.5, z+0.5'
   'x+0.5, -y, -z'
   '-x, y+0.5, -z+0.5'
   '-x, -y, -z'
   'x+0.5, y+0.5, -z+0.5'
   '-x+0.5, y, z'
   'x, -y+0.5, z+0.5'
_cell_length_a        5.17900
_cell_length_b        8.49200
_cell_length_c        6.14100
_cell_angle_alpha    90.0000
_cell_angle_beta     90.0000
_cell_angle_gamma    90.0000
_cell_formula_units_Z 4
loop_
_atom_site_label
_atom_site_fract_x
_atom_site_fract_y
_atom_site_fract_z
_atom_site_occupancy
_atom_site_B_iso_or_equiv
pb      0.250   0.417   0.246    1.00000    0.857
c      0.250   0.762   0.087    1.00000    0.768
o      0.250   0.913   0.096    1.00000    1.329
o      0.464   0.686   0.089    1.00000    1.334
_cell_measurement_wavelength    1.541874
_cell_measurement_radiation   'x-rays'
_exptl_crystal_density_diffrn    6.571000
loop_
_pd_peak_d_spacing
_pd_peak_intensity
     4.976186          0.41
     4.421590        147.47
     4.246000         69.86
     3.588253       1000.00
     3.492481        485.26
     3.070500        183.21
     2.895605          4.02
     2.887542         16.57
     2.641198         14.30
     2.589500        148.77
     2.570710          3.77
     2.522029        170.93
     2.488093         85.83
     2.483868        261.84
     2.302645          0.00
     2.297092          2.67
     2.242706          0.00
     2.210795         65.63
     2.123000         20.82
     2.081213          0.87
     2.080105        289.55
     2.006481        134.03
     1.990001          0.54
     1.979525        138.37
     1.931119        250.13
     1.927840          0.85
     1.870973          1.62
     1.857590        183.89
     1.843904         86.00
     1.824373          2.46
     1.794126         44.40
     1.746240         21.94
     1.737090          1.25
     1.691730         19.89
     1.658729          0.01
     1.654711          0.12
     1.641769         17.11
     1.636949          0.82
     1.630975         94.97
     1.622213          0.00
     1.613836         14.42
     1.586066         89.25
     1.579685          0.04
     1.577889          0.37
     1.560838         82.15
     1.547592          1.65
     1.535250         20.75
     1.510759          1.99
     1.504802          0.33
     1.502019         55.97
     1.486194          0.02
     1.481719         24.74
     1.473863         44.80
     1.473583         25.37
     1.471938          0.02
     1.450313         28.49
     1.447802         22.91
     1.443771         13.89
     1.433165          0.21
     1.428538         24.50
     1.418361          0.34
     1.417328          0.62
     1.415333         21.46
     1.396745          0.01
     1.390741          0.54
     1.383666          0.39
     1.379178          0.02
     1.349539          0.27
     1.332731          0.00
     1.328718         68.83
     1.320599         32.37
     1.308635          0.00
     1.307078          0.08
     1.305930         64.18
     1.304914          0.07
     1.304031         55.07
     1.294750         20.40
     1.288986          0.20
     1.285355         29.79
     1.280733         50.95
     1.267339         46.97
     1.261015         12.00
     1.260217          0.43
     1.253030          0.00
     1.247508          0.72
     1.244046          6.23
     1.241934         34.89
     1.238451          5.23
     1.227680          0.02
     1.217290          0.12
     1.215552          0.40
     1.214010         36.66
     1.210705          4.47
     1.209637          0.19
     1.196766          0.90
     1.196084          0.17
     1.193022         20.18
     1.190142          0.00
     1.187840         34.25
     1.183394         32.70
     1.181420          0.27
     1.181170          4.40
     1.179832         15.53
     1.166856          0.21
     1.164160          0.10
     1.159910         29.92
     1.156364          0.06
     1.151322         35.98
     1.150359          0.30
     1.148546         11.34
     1.147219          0.19
     1.138909          0.08
     1.136891          9.83
     1.135818          0.00
     1.128273          0.05
     1.126713          0.10
     1.126311         11.15
     1.121353          9.04
     1.120792          0.21
     1.112330         10.46
     1.107506          0.05
     1.105398          4.28
     1.102415          8.98
     1.100960          0.00
     1.100351          1.30
     1.099370          0.13
     1.087913         28.87
     1.085263          0.14
     1.081396          0.06
     1.077532          0.05
     1.073644         25.85
     1.063218         33.70
     1.063113         12.90
     1.061794          0.08
     1.061500          2.81
     1.059615         23.62
     1.045989         12.47
     1.043633          0.07
     1.042530          0.45
     1.042080         21.53
     1.041399          0.18
     1.040607         14.89
     1.040053          7.61
     1.034354          0.26
     1.033151          0.19
     1.030971          0.77
     1.028180          2.04
     1.025286          0.17
     1.023500          9.73
     1.023068         24.90
     1.020632          0.00
     1.020216          0.14
     1.016146          0.19
     1.015496          0.04
     1.014065         21.65
     1.009285          0.13
##############################################################################
###                            Comments                                    ###
##############################################################################
###   Pribram, Czech Republic
###   Diffraction pattern calculated by Match!. 
###   I/Ic calculated by Match!. 
###   Space group has been derived from given symmetry operations. 
##############################################################################


