##############################################################################
###               Crystal structure data exported by Match!                ###
##############################################################################
###                           Data published by:                           ###
###                                                                        ###
###               COD (Crystallography Open Database)
##############################################################################
data_9007167
_citation_journal_full    'Physics and Chemistry of Minerals'
_citation_journal_volume  '30'
_citation_page_first  '167'
_citation_page_last   '176'
_citation_year  '2003'
_citation_title  'Compression mechanisms of coesiteSample: X4P3, P = 5.01 GPa'
loop_
_publ_author_name
  'Angel R. J.'
  'Shaw C. S. J.'
  'Gibbs G. V.'
_chemical_formula_sum  'O2 Si'
_chemical_name_mineral  'Coesite'
_symmetry_space_group_name_H-M 'C 1 2/c 1'
_space_group_IT_number 15
_space_group_crystal_system 'monoclinic'
loop_
_symmetry_equiv_pos_as_xyz
   'x, y, z'
   'x+0.5, y+0.5, z'
   '-x, y, -z+0.5'
   '-x+0.5, y+0.5, -z+0.5'
   '-x, -y, -z'
   '-x+0.5, -y+0.5, -z'
   'x, -y, z+0.5'
   'x+0.5, -y+0.5, z+0.5'
_cell_length_a        6.98620
_cell_length_b       12.23110
_cell_length_c        7.11010
_cell_angle_alpha    90.0000
_cell_angle_beta    120.7460
_cell_angle_gamma    90.0000
loop_
_atom_site_label
_atom_site_fract_x
_atom_site_fract_y
_atom_site_fract_z
_atom_site_occupancy
_atom_site_B_iso_or_equiv
si      0.137   0.110   0.070    1.00000    0.370
si      0.508   0.157   0.544    1.00000    0.405
o      0.000   0.000   0.000    1.00000    0.670
o      0.500   0.109   0.750    1.00000    0.559
o      0.252   0.130   0.928    1.00000    0.720
o      0.319   0.101   0.325    1.00000    0.810
o      0.027   0.213   0.471    1.00000    0.679
_cell_measurement_wavelength    1.541874
_cell_measurement_radiation   'x-rays'
_cell_measurement_pressure       5010000.000000
_exptl_crystal_density_diffrn    3.057000
loop_
_pd_peak_d_spacing
_pd_peak_intensity
     6.115550         68.68
     5.477019          6.05
     5.389828          4.69
     4.322638         27.12
     3.413761         72.36
     3.393990        138.75
     3.372933        323.60
     3.350672        701.51
     3.062742        947.52
     3.057775       1000.00
     3.055359        781.80
     3.032565        820.42
     3.002117        184.07
     2.738510         10.09
     2.734525         62.37
     2.733228         92.95
     2.694914        102.58
     2.679462        105.86
     2.648628        267.61
     2.300513        121.52
     2.283110         74.37
     2.271766         14.05
     2.265419         30.59
     2.257343          2.41
     2.251433         87.54
     2.238814         65.81
     2.174377         26.31
     2.163927         44.12
     2.161319         22.51
     2.142224         45.45
     2.131001          8.93
     2.038517          0.67
     2.018991         23.12
     2.015223          4.03
     2.013958          9.03
     2.002007        115.45
     2.001106         36.91
     1.996985          4.12
     1.988163          0.51
     1.975143         34.76
     1.933754          0.00
     1.932532          0.40
     1.851459          7.12
     1.825673        100.79
     1.824459         14.18
     1.796609        116.49
     1.777518        154.36
     1.760515        122.99
     1.746080          2.57
     1.741975          0.00
     1.706881          0.03
     1.696995          7.78
     1.695736         62.08
     1.695220         35.69
     1.689329          9.09
     1.686848          8.97
     1.686467         79.60
     1.684851         16.84
     1.680276         14.63
     1.678986         24.42
     1.677703         46.99
     1.675336         28.21
     1.674415          1.25
     1.671999          3.80
     1.668874        128.27
     1.666811          1.24
     1.651337          7.98
     1.628294        166.67
     1.609837          6.50
     1.573522          2.04
     1.571516         12.33
     1.568128         40.29
     1.567532          0.96
     1.561877         32.92
     1.556952         42.31
     1.549020         38.70
     1.542683         17.46
     1.536734         47.45
     1.533184          0.11
     1.531371         36.52
     1.528888         47.55
     1.527680         12.58
     1.517746         12.67
     1.516282         19.53
     1.513592         68.78
     1.501059         27.11
     1.485506          0.25
     1.483170         28.91
     1.482136          2.57
     1.478634          3.71
     1.464771          2.20
     1.457788         14.27
     1.440879          0.11
     1.403274         13.31
     1.400544         20.83
     1.399137          1.46
     1.397726          1.21
     1.396589         10.12
     1.390628          6.21
     1.389243         14.14
     1.387449         26.88
     1.386263          1.27
     1.382557         15.58
     1.377323          1.82
     1.375522          0.79
     1.375429         16.44
     1.372753         36.13
     1.369255          6.24
     1.367922          2.72
     1.367262          8.05
     1.366614          2.10
     1.362390          4.33
     1.353428          1.53
     1.347457          0.11
     1.339731          1.15
     1.334756         15.76
     1.330860        134.54
     1.327561         51.85
     1.326750          2.05
     1.326115         85.32
     1.325482         70.28
     1.324314         51.90
     1.323044         40.94
     1.319475         12.35
     1.316890          2.31
     1.316259         32.92
     1.310726         56.25
     1.310005         73.74
     1.308409         44.17
     1.304554          3.92
     1.300708         70.23
     1.291242         12.03
     1.281695          3.66
     1.281623         66.31
     1.277670         24.07
     1.271984         44.00
     1.269419         94.48
     1.268694          7.57
     1.266096          7.09
     1.265155         57.03
     1.263765          3.78
     1.262033          9.25
     1.248958          0.14
     1.228196          0.38
     1.224381          2.67
     1.223289          4.37
     1.223110          5.84
     1.222762         57.38
     1.222491          7.05
     1.220545          0.06
     1.219609         11.47
     1.218997         16.04
     1.212763          5.37
     1.209492          0.96
     1.208721         43.36
     1.205983          1.07
     1.204714          0.05
     1.204711          7.73
     1.202912         42.26
     1.199322          0.49
     1.198447          8.62
     1.195101         17.24
     1.179489         35.39
     1.174424         30.77
     1.173273          3.52
     1.173144          1.88
     1.169604         26.29
     1.169042         27.72
     1.168780         44.23
     1.167004          0.15
     1.166578         33.61
     1.163194          0.32
     1.161978          5.67
     1.160574          0.63
     1.159108         16.03
     1.156228          0.20
     1.156117          0.00
     1.154355          1.58
     1.151919         28.49
     1.150256          4.40
     1.149081         14.50
     1.148399          0.10
     1.147211          0.12
     1.145287          2.14
     1.143522         15.76
     1.142708          1.14
     1.141555          0.35
     1.138645          1.06
     1.137920          4.40
     1.136746         11.39
     1.135883          2.13
     1.135505          1.02
     1.134856          4.75
     1.133558          0.85
     1.132710          4.19
     1.131330          0.91
     1.128672          0.96
     1.127276          0.92
     1.125717          1.20
     1.124311          4.49
     1.120406         42.02
     1.119407          1.88
     1.117603          2.62
     1.116891          9.51
     1.102495         13.01
     1.098826          0.19
     1.098515         18.46
     1.096778          0.06
     1.095404          6.85
     1.094040          2.77
     1.093328          0.17
     1.088973         12.81
     1.088491          2.99
     1.087890          2.07
     1.087188          0.03
     1.086196          2.06
     1.085002         17.68
     1.083687         13.97
     1.082603          6.22
     1.081964          0.52
     1.080659          0.03
     1.079075         14.80
     1.077966         13.98
     1.077126          5.38
     1.075079          3.11
     1.074419          0.34
     1.072525          3.23
     1.071112          0.46
     1.067064          1.33
     1.066468         23.66
     1.065500          0.06
     1.064982          3.49
     1.063118          0.80
     1.063046         21.83
     1.062888         19.46
     1.062719         12.00
     1.062269         21.75
     1.061221          3.57
     1.059277          7.01
     1.058726          6.49
     1.057737          0.44
     1.056895          0.52
     1.056004          0.01
     1.053230          0.60
     1.049180          1.15
     1.049097          2.50
     1.048589          7.59
     1.048199          2.97
     1.042717          1.92
     1.037178         21.41
     1.031958          0.00
     1.027607          6.79
     1.020914          0.10
     1.019258          0.13
     1.018453          3.74
     1.017911          0.08
     1.010855          3.80
     1.010292          0.06
     1.009495          0.14
     1.008432         17.22
     1.008209          7.03
     1.007612          3.41
     1.006979          0.23
##############################################################################
###                            Comments                                    ###
##############################################################################
###   Diffraction pattern calculated by Match!. 
###   I/Ic calculated by Match!. 
###   Space group has been derived from given symmetry operations. 
##############################################################################


