##############################################################################
###               Crystal structure data exported by Match!                ###
##############################################################################
###                           Data published by:                           ###
###                                                                        ###
###               COD (Crystallography Open Database)
##############################################################################
data_9013070
_citation_journal_full    'International Journal of Coal Geology'
_citation_journal_volume  '71'
_citation_page_first  '115'
_citation_page_last   '121'
_citation_year  '2007'
_citation_title  'Arsenic in iron disulfides in a brown coal from the North Bohemian Basin,Czech RepublicLocality: syntheticSample: As-pyrite'
loop_
_publ_author_name
  'Rieder M.'
  'Crelling J. C.'
  'Sustai O.'
  'Drabek M.'
  'Weiss Z.'
  'Klementova M.'
_chemical_formula_sum  'As0.026 Fe S1.974'
_chemical_name_mineral  'Pyrite'
_symmetry_space_group_name_H-M 'P a -3'
_space_group_IT_number 205
_space_group_crystal_system 'cubic'
loop_
_symmetry_equiv_pos_as_xyz
   'x, y, z'
   'z, x, y'
   'y, z, x'
   '-y+0.5, -z, x+0.5'
   'z+0.5, -x+0.5, -y'
   '-y, z+0.5, -x+0.5'
   '-z+0.5, -x, y+0.5'
   '-z, x+0.5, -y+0.5'
   'y+0.5, -z+0.5, -x'
   '-x+0.5, -y, z+0.5'
   'x+0.5, -y+0.5, -z'
   '-x, y+0.5, -z+0.5'
   '-x, -y, -z'
   '-z, -x, -y'
   '-y, -z, -x'
   'y+0.5, z, -x+0.5'
   '-z+0.5, x+0.5, y'
   'y, -z+0.5, x+0.5'
   'z+0.5, x, -y+0.5'
   'z, -x+0.5, y+0.5'
   '-y+0.5, z+0.5, x'
   'x+0.5, y, -z+0.5'
   '-x+0.5, y+0.5, z'
   'x, -y+0.5, z+0.5'
_cell_length_a        5.42800
_cell_length_b        5.42800
_cell_length_c        5.42800
_cell_angle_alpha    90.0000
_cell_angle_beta     90.0000
_cell_angle_gamma    90.0000
loop_
_atom_site_label
_atom_site_fract_x
_atom_site_fract_y
_atom_site_fract_z
_atom_site_occupancy
_atom_site_B_iso_or_equiv
fe      0.000   0.000   0.000    1.00000    1.000
s      0.385   0.385   0.385    0.98700    1.000
as      0.385   0.385   0.385    0.01300    1.000
_cell_measurement_wavelength    1.541874
_cell_measurement_radiation   'x-rays'
_exptl_crystal_density_diffrn    5.029000
loop_
_pd_peak_d_spacing
_pd_peak_intensity
     3.133857        406.14
     2.714000       1000.00
     2.427475        595.54
     2.215972        487.01
     1.919088        509.84
     1.809333          6.24
     1.636604        979.84
     1.566929        151.01
     1.505456        158.47
     1.450694        210.61
     1.357000          0.61
     1.316483          6.52
     1.279392          3.70
     1.245269         88.98
     1.213738        113.41
     1.184487         77.89
     1.157253         37.90
     1.107986        102.99
     1.085600          2.94
     1.064518          4.27
     1.044619        270.33
     1.007954         89.29
##############################################################################
###                            Comments                                    ###
##############################################################################
###   Diffraction pattern calculated by Match!. 
###   I/Ic calculated by Match!. 
##############################################################################


