##############################################################################
###               Crystal structure data exported by Match!                ###
##############################################################################
###                           Data published by:                           ###
###                                                                        ###
###               COD (Crystallography Open Database)
##############################################################################
data_9009467
_citation_journal_full    'Mineralogical Magazine'
_citation_journal_volume  '50'
_citation_page_first  '157'
_citation_page_last   '162'
_citation_year  '1986'
_citation_title  'The crystal structure and chemical composition of cumengeite Locality: Boleo, Baja California, Mexico'
loop_
_publ_author_name
  'Hawthorne F. C.'
  'Groat L. A.'
_chemical_formula_sum  'Cl42 Cu20 H40 O40 Pb21'
_chemical_name_mineral  'Cumengeite'
_symmetry_space_group_name_H-M 'I 4/m m m'
_space_group_IT_number 139
_space_group_crystal_system 'tetragonal'
loop_
_symmetry_equiv_pos_as_xyz
   'x, y, z'
   'x+0.5, y+0.5, z+0.5'
   '-y, x, z'
   '-y+0.5, x+0.5, z+0.5'
   '-x, -y, z'
   '-x+0.5, -y+0.5, z+0.5'
   'y, -x, z'
   'y+0.5, -x+0.5, z+0.5'
   'x, -y, -z'
   'x+0.5, -y+0.5, -z+0.5'
   '-x, y, -z'
   '-x+0.5, y+0.5, -z+0.5'
   'y, x, -z'
   'y+0.5, x+0.5, -z+0.5'
   '-y, -x, -z'
   '-y+0.5, -x+0.5, -z+0.5'
   '-x, -y, -z'
   '-x+0.5, -y+0.5, -z+0.5'
   'y, -x, -z'
   'y+0.5, -x+0.5, -z+0.5'
   'x, y, -z'
   'x+0.5, y+0.5, -z+0.5'
   '-y, x, -z'
   '-y+0.5, x+0.5, -z+0.5'
   '-x, y, z'
   '-x+0.5, y+0.5, z+0.5'
   'x, -y, z'
   'x+0.5, -y+0.5, z+0.5'
   '-y, -x, z'
   '-y+0.5, -x+0.5, z+0.5'
   'y, x, z'
   'y+0.5, x+0.5, z+0.5'
_cell_length_a       15.06500
_cell_length_b       15.06500
_cell_length_c       24.43600
_cell_angle_alpha    90.0000
_cell_angle_beta     90.0000
_cell_angle_gamma    90.0000
loop_
_atom_site_label
_atom_site_fract_x
_atom_site_fract_y
_atom_site_fract_z
_atom_site_occupancy
_atom_site_B_iso_or_equiv
pb      0.000   0.000   0.000    1.00000    3.157
pb      0.000   0.000   0.320    1.00000    3.632
pb      0.276   0.000   0.235    1.00000    3.079
pb      0.198   0.198   0.365    1.00000    3.000
pb      0.500   0.000   0.410    0.50000    3.079
cu      0.260   0.096   0.091    1.00000    2.684
cu      0.261   0.261   0.000    1.00000    2.921
cl      0.132   0.132   0.000    1.00000    4.025
cl      0.382   0.127   0.179    1.00000    3.552
cl      0.000   0.000   0.119    1.00000    3.709
cl      0.170   0.000   0.377    1.00000    4.815
cl      0.127   0.127   0.246    1.00000    3.866
cl      0.370   0.000   0.500    1.00000    5.684
o      0.301   0.176   0.441    1.00000    2.526
o      0.185   0.185   0.128    1.00000    3.000
o      0.212   0.000   0.136    1.00000    3.079
o      0.327   0.000   0.057    1.00000    2.921
_cell_measurement_wavelength    1.541874
_cell_measurement_radiation   'x-rays'
_exptl_crystal_density_diffrn    4.666000
loop_
_pd_peak_d_spacing
_pd_peak_intensity
    12.823796        116.67
    12.218000        683.72
    10.652563          0.28
     8.029295          7.37
     7.532500        421.34
     7.165087        606.20
     6.494933         32.53
     6.411898         44.05
     6.109000        100.64
     5.326282         17.01
     5.299415          4.32
     5.191513        316.05
     4.918875        318.57
     4.882510       1000.00
     4.763971         17.68
     4.744718        401.45
     4.648703          3.81
     4.438504         80.88
     4.274599        212.52
     4.118506        108.12
     4.072667         63.41
     4.014647        772.67
     3.955981         17.07
     3.804126        153.06
     3.766250        607.84
     3.756715        227.86
     3.717686        625.69
     3.613626         53.64
     3.599134         39.02
     3.582544          3.62
     3.550854        286.17
     3.502346         24.44
     3.409774        142.29
     3.400751        127.15
     3.368636         65.94
     3.333752         36.02
     3.247466          8.05
     3.235264        714.28
     3.205949         25.28
     3.175835         26.17
     3.099502        541.70
     3.095644        106.87
     3.069933         43.84
     3.054500        189.38
     2.990354        407.04
     2.954489          3.26
     2.949880         62.42
     2.936179         34.72
     2.926370         23.13
     2.871721          3.06
     2.866325         19.45
     2.830623        149.67
     2.825865        217.63
     2.779346        205.11
     2.765129         98.93
     2.678924         52.57
     2.676432         28.91
     2.672062         91.23
     2.663141        243.53
     2.659763        245.32
     2.649707          6.94
     2.645804          1.33
     2.602046        235.90
     2.595756         78.54
     2.583626        108.10
     2.571355        112.53
     2.564759         94.13
     2.527730         27.79
     2.524047         14.26
     2.518305          4.36
     2.510833         75.89
     2.464047         22.23
     2.459438         23.64
     2.443600          1.41
     2.441255        184.84
     2.427879        311.59
     2.391481        525.30
     2.388362         86.36
     2.381986          3.10
     2.381740          0.53
     2.379568        372.01
     2.372359        134.11
     2.369556        135.23
     2.341928         35.54
     2.337969        267.74
     2.324351         51.87
     2.322333          3.55
     2.315630        167.77
     2.280899         61.09
     2.276659          4.80
     2.262785         86.24
     2.260353         60.01
     2.236333          7.60
     2.228907          7.19
     2.221014         28.50
     2.219252         39.58
     2.209190          1.68
     2.197690          0.52
     2.183011        318.44
     2.181662          4.83
     2.179293         93.20
     2.174258          5.04
     2.164978          0.35
     2.143844         39.82
     2.137299         15.39
     2.130513         31.07
     2.123616          0.68
     2.119896         11.37
     2.109729          1.13
     2.098842         54.33
     2.089140         43.97
     2.080739         13.42
     2.061957          8.51
     2.059253          9.44
     2.056131         52.51
     2.049930          0.43
     2.040622         13.24
     2.036333         19.38
     2.031549        219.10
     2.019937         21.67
     2.016990        130.70
     2.012997         31.81
     2.011685        273.12
     2.007324         26.94
     2.005625         87.43
     2.000117          5.78
     1.978131        114.14
     1.977991         70.82
     1.976746         14.22
     1.972608         74.56
     1.969625          6.46
     1.965767         34.72
     1.961462         68.82
     1.952704        120.03
     1.951005          2.79
     1.948350          0.16
     1.939632         14.00
     1.922894          2.18
     1.905557          0.75
     1.902063          6.59
     1.898162          0.00
     1.888680         10.21
     1.887806        106.78
     1.883125         49.31
     1.883003          2.61
     1.881930          4.77
     1.878358         65.31
     1.876965         71.87
     1.872449         11.47
     1.865229         36.90
     1.863144         19.51
     1.861149          9.28
     1.858843          1.05
     1.831971          6.21
     1.829772          0.79
     1.826900         40.87
     1.821274          1.46
     1.810546         13.28
     1.806813          7.17
     1.800506          7.48
     1.799567         97.47
     1.794189         27.92
     1.791272          5.66
     1.788013         98.07
     1.780081         36.22
     1.779349         17.40
     1.778063          8.45
     1.775427         33.74
     1.775325         15.60
     1.766472          0.69
     1.760406         34.31
     1.758652         16.04
     1.756974         48.16
     1.751271         12.74
     1.751173         22.37
     1.750309        118.87
     1.747434         40.22
     1.745429          1.22
     1.745360         31.30
     1.742674         46.26
     1.739672          3.36
     1.733553          4.64
     1.730504          3.17
     1.724388          1.62
     1.723310         36.98
     1.722460          0.16
     1.714214          2.13
     1.709252         15.46
     1.705685        146.64
     1.704887         46.75
     1.700375         32.53
     1.688290          0.83
     1.686568         58.34
     1.684318          3.19
     1.683463         51.11
     1.676666         20.64
     1.671477         23.65
     1.669975          0.01
     1.668538          0.85
     1.666876         13.29
     1.663651         13.21
     1.660361         38.70
     1.658640         18.43
     1.658581          3.97
     1.653698          0.68
     1.648440         10.74
     1.647417          4.64
     1.645817          3.08
     1.639625          7.10
     1.638893         14.30
     1.630388          0.69
     1.627503          0.65
     1.623733         33.02
     1.619625         14.46
     1.617632         19.97
     1.615230          1.99
     1.608835          9.81
     1.605859          0.15
     1.605193          2.06
     1.602974          1.71
     1.602109         16.08
     1.599297         18.55
     1.594792         38.36
     1.593488          1.20
     1.587990          0.96
     1.587918          0.08
     1.583631          4.76
     1.583580          1.07
     1.583435         73.62
     1.581573          9.41
     1.579328          8.45
     1.574745          0.95
     1.573854         24.97
     1.572459          1.74
     1.567865          0.00
     1.567056          9.82
     1.566416          5.40
     1.560206          5.67
     1.556463          4.14
     1.549751         13.06
     1.549703          5.19
     1.549568          1.95
     1.547822         23.85
     1.545718         54.06
##############################################################################
###                            Comments                                    ###
##############################################################################
###   Diffraction pattern calculated by Match!. 
###   I/Ic calculated by Match!. 
##############################################################################


