##############################################################################
###               Crystal structure data exported by Match!                ###
##############################################################################
###                           Data published by:                           ###
###                                                                        ###
###               COD (Crystallography Open Database)
##############################################################################
data_1008247
_citation_journal_full    'Materials Research Bulletin'
_citation_journal_volume  '15'
_citation_page_first  '1083'
_citation_page_last   '1090'
_citation_year  '1980'
_citation_title  'Structure cristalline de l'orthophosphate monoacide de cuivre monohydrate Cu (H P O~4~) (H~2~ O)'
loop_
_publ_author_name
  'Boudjada A'
_chemical_formula_sum  'Cu H3 O5 P'
_chemical_name_common  'COPPER HYDROGENPHOSPHATE HYDRATE'
_symmetry_space_group_name_H-M 'P 1 21/a 1'
_space_group_IT_number 14
_space_group_crystal_system 'monoclinic'
loop_
_symmetry_equiv_pos_as_xyz
   'x, y, z'
   '-x+0.5, y+0.5, -z'
   '-x, -y, -z'
   'x+0.5, -y+0.5, z'
_cell_length_a        8.60600
_cell_length_b        6.34600
_cell_length_c        6.81100
_cell_angle_alpha    90.0000
_cell_angle_beta     94.1600
_cell_angle_gamma    90.0000
_cell_formula_units_Z 4
loop_
_atom_site_label
_atom_site_fract_x
_atom_site_fract_y
_atom_site_fract_z
_atom_site_occupancy
_atom_site_B_iso_or_equiv
cu      0.000   0.000   0.000    1.00000    1.000
cu      0.000   0.000   0.500    1.00000    1.000
p      0.235   0.299   0.225    1.00000    1.000
o      0.134   0.103   0.223    1.00000    1.000
o      0.341   0.297   0.056    1.00000    1.000
o      0.322   0.321   0.426    1.00000    1.000
o      0.123   0.496   0.192    1.00000    1.000
o      0.412   0.734   0.323    1.00000    1.000
_cell_measurement_wavelength    1.541874
_cell_measurement_radiation   'x-rays'
_exptl_crystal_density_diffrn    3.124000
_exptl_crystal_density_meas      3.180000
loop_
_pd_peak_d_spacing
_pd_peak_intensity
     6.793055         10.92
     5.102790       1000.00
     4.637296        236.84
     4.291663         38.40
     4.167137         49.83
     3.997968         15.42
     3.753261          3.02
     3.555030          1.55
     3.514929         14.75
     3.396528         17.38
     3.230534         81.58
     3.173000         15.33
     3.074784        136.52
     2.994583         29.89
     2.976155         28.76
     2.885425        212.34
     2.874847          1.93
     2.772825        236.43
     2.762656        254.53
     2.751566          2.98
     2.701149          4.84
     2.608274        118.28
     2.574031         42.43
     2.551395        295.83
     2.533034         52.37
     2.490695          1.91
     2.423127         47.28
     2.385282         42.45
     2.382795          0.01
     2.355283         19.65
     2.318648        110.14
     2.266855          2.55
     2.264352          2.29
     2.211019          0.31
     2.145832         15.96
     2.138117         59.23
     2.132656          0.27
     2.124843         14.52
     2.103633          0.27
     2.090185          3.19
     2.083569         56.40
     2.065486          6.16
     2.059814          2.92
     2.053880         23.89
     2.037406          2.29
     2.032765          8.86
     2.019677          0.47
     2.005608         57.64
     2.004825          0.46
     1.998984         45.73
     1.997519          3.28
     1.985271         11.46
     1.975507          4.48
     1.964071          1.91
     1.956598          7.15
     1.945297         26.85
     1.911695          1.49
     1.897374          1.21
     1.876630         23.27
     1.859876          2.39
     1.846671          7.03
     1.843149          5.49
     1.842807          1.16
     1.824317          0.00
     1.812431         13.56
     1.799593          6.26
     1.795578          2.03
     1.780616          0.30
     1.777515         19.77
     1.771199         38.14
     1.768783          1.78
     1.759272          4.48
     1.757464         16.51
     1.745498          0.16
     1.744178         52.14
     1.731036          0.48
     1.700930         79.02
     1.698264         38.66
     1.694858          2.93
     1.693714          1.81
     1.679535          0.13
     1.667018          6.87
     1.658433          3.97
     1.657105         38.83
     1.656526          0.01
     1.640535          8.14
     1.636498          0.29
     1.634278          0.24
     1.633477          7.25
     1.632601         45.62
     1.619837          0.05
     1.617221          3.09
     1.615267         65.92
     1.592877          0.06
     1.590940         22.44
     1.586500         27.12
     1.584553          0.23
     1.569514          0.13
     1.567134         12.86
     1.560075         15.25
     1.547841         22.86
     1.545765          0.38
     1.544926          0.21
     1.541331         17.94
     1.537392         63.74
     1.534607          0.45
     1.532190         28.49
     1.524885          0.00
     1.516138          0.62
     1.509857          0.61
     1.509418          2.14
     1.508320          0.01
     1.506434          1.20
     1.504025          4.18
     1.497785          2.13
     1.497291         15.28
     1.495281         41.86
     1.494220          0.04
     1.491252          0.01
     1.488078         19.68
     1.486796          5.94
     1.477828          0.02
     1.468270         17.50
     1.463484          0.38
     1.461313          0.87
     1.459301          0.61
     1.455125          4.34
     1.454367          0.50
     1.449837         22.56
     1.446026          0.00
     1.442713         33.24
     1.440863          0.38
     1.437424         11.74
     1.431877          2.26
     1.430554          6.50
     1.424825          0.68
     1.420788          0.04
     1.413564          7.38
     1.410645          0.99
     1.403818          0.04
     1.395535          0.08
     1.389046          1.67
     1.387469          3.20
     1.386464          0.40
     1.386412         25.74
     1.384254          0.52
     1.382002         15.67
     1.381328          9.90
     1.379812          0.18
     1.375783         22.33
     1.368878          0.10
     1.362905          0.47
     1.359075         10.79
     1.358611          2.61
     1.353993         19.16
     1.351790          0.10
     1.350575         12.31
     1.350123          0.01
     1.349723          0.09
     1.348309          0.18
     1.348124          1.53
     1.332958         19.76
     1.332656          2.39
     1.328507          8.51
     1.327181          0.25
     1.324288          0.23
     1.324188          0.33
     1.323170          1.50
     1.322161          3.94
     1.320104         11.51
     1.304137         18.85
     1.300551          2.68
     1.299319          0.03
     1.299020          0.01
     1.297786         13.58
     1.296725          3.16
     1.295313          1.55
     1.294916          0.08
     1.294749          1.41
     1.294311          0.83
     1.293072          1.37
     1.292671          0.02
     1.287016          9.33
     1.286076          0.43
     1.285453         16.72
     1.284766          5.34
     1.276842          2.45
     1.275697         10.68
     1.269040          1.00
     1.268903          1.02
     1.266517          5.20
     1.265348          1.39
     1.265299          6.14
     1.263706          0.27
     1.261337          1.29
     1.259866          1.41
     1.258185          0.21
     1.255548          9.31
     1.251087          0.00
     1.248938          0.01
     1.247837          1.34
     1.247611          0.28
     1.245715          0.08
     1.245348          0.31
     1.244402          1.93
     1.244086          0.12
     1.238984          0.46
     1.236985          8.37
     1.232302          5.89
     1.229863          8.26
     1.229463          0.06
     1.228579         19.11
     1.227461          3.43
     1.225771          0.69
     1.224344          0.00
     1.221239          1.41
     1.220766          2.56
     1.217719          1.35
     1.217092          0.46
     1.211564         10.06
     1.203921         11.29
     1.202317          0.09
     1.202029          1.13
     1.200228          0.29
     1.193760          0.33
     1.192641          3.00
     1.191397          3.63
     1.188906          0.47
     1.187474          0.32
     1.185010          0.80
     1.181747          9.60
     1.179441          0.30
     1.178294          0.88
     1.178080          4.93
     1.177642          4.13
     1.176690          1.81
     1.173692          1.85
     1.173619         18.80
     1.173567          0.27
     1.171643          0.02
     1.171201          0.10
     1.167215          0.23
     1.165929          1.22
     1.165128          0.00
     1.164926          2.82
     1.163882          0.66
     1.161085          8.45
     1.160171          8.74
     1.159324          7.65
     1.157897          0.00
     1.156574          0.16
     1.156514          1.23
     1.155684          0.01
     1.153313          0.01
     1.152170          1.90
     1.149236          0.28
     1.146581          5.43
     1.143756          0.04
     1.143141          0.86
     1.142296          0.81
     1.141418          1.08
     1.140588          0.51
     1.140386          0.05
     1.139053          0.02
     1.138341          0.02
     1.138070          0.08
     1.135446          3.66
     1.133428          1.95
     1.132530          0.02
     1.132176          1.43
     1.124192          2.44
     1.121787          0.00
     1.121420          1.43
     1.119129          2.87
     1.117696          0.36
     1.117633          0.00
     1.115589          1.39
     1.115517          3.36
     1.114852         10.80
     1.114577          2.43
     1.112143          3.31
     1.112001          0.04
     1.110121          3.87
     1.107904          1.55
     1.107142          0.04
     1.106837          0.94
     1.105509          8.73
     1.103020          2.58
     1.099500          0.66
     1.099106          0.74
     1.098526          1.28
     1.098036          2.21
     1.095856          0.29
     1.095353          5.98
     1.095313          0.10
     1.094250          0.36
     1.093480          0.86
     1.093137          0.02
     1.092418          0.01
     1.091499          0.13
     1.088680          0.01
     1.088229          0.99
     1.088143          0.92
     1.085802          0.52
     1.084860          0.01
     1.084600          0.09
     1.081361          0.00
     1.078466          4.12
     1.076845          1.56
     1.075647          3.91
     1.072916          5.89
     1.072371          0.12
     1.071828          0.01
     1.069059         11.77
     1.067151          0.14
     1.066328          9.66
     1.064588          8.85
     1.062963          0.18
     1.062424          0.11
     1.062422          2.48
     1.060845          1.53
     1.060520          0.11
     1.058403          0.26
     1.058316          0.38
     1.057902          2.43
     1.057667          4.01
     1.057419          0.02
     1.056980          0.63
     1.056860          1.13
     1.056414          0.17
     1.051817          3.09
     1.051332          0.00
     1.049900          0.07
     1.049727          2.75
     1.049457          0.71
     1.049422          0.64
     1.048127          0.65
     1.045093          0.01
     1.045083          1.54
     1.045075          0.00
     1.043584          0.17
     1.042617          1.53
     1.041784          7.32
     1.041134          0.00
     1.039902          1.05
     1.038806          0.00
     1.038255          0.07
     1.036028          0.63
     1.035475          0.42
     1.034117          0.60
     1.032952          0.24
     1.032743          1.10
     1.031935          0.00
     1.031313          1.62
     1.031202          0.00
     1.031188          7.25
     1.029907          7.70
     1.028936          0.25
     1.026940          2.54
     1.024928          0.19
     1.022883          0.00
     1.022307          0.06
     1.020987         11.58
     1.020558          5.48
     1.020423          0.01
     1.019333          0.05
     1.018703          1.06
     1.018018          0.17
     1.017931          0.64
     1.016928          5.30
     1.016651          0.01
     1.016382          5.70
     1.016323          0.17
     1.016145          0.17
     1.015872          1.42
     1.015688          0.04
     1.015457          0.09
     1.014754          7.50
     1.014343          5.95
     1.012808          0.00
     1.009849          0.15
     1.009838          5.41
##############################################################################
###                            Comments                                    ###
##############################################################################
###   Diffraction pattern calculated by Match!. 
###   I/Ic calculated by Match!. 
##############################################################################


