##############################################################################
###               Crystal structure data exported by Match!                ###
##############################################################################
###                           Data published by:                           ###
###                                                                        ###
###               COD (Crystallography Open Database)
##############################################################################
data_9014848
_citation_journal_full    'Journal of Mineralogical and Petrological Sciences'
_citation_journal_volume  '104'
_citation_page_first  '125'
_citation_page_last   '131'
_citation_year  '2009'
_citation_title  'Crystal structure and chemistry of conichalcite, CaCu(AsO4)(OH)'
loop_
_publ_author_name
  'Sakai S.'
  'Yoshiasa A.'
  'Sugiyama K.'
  'Miyawaki R.'
_chemical_formula_sum  'As Ca Cu0.96 H Mg0.04 O5'
_chemical_name_mineral  'Conichalcite'
_symmetry_space_group_name_H-M 'P 21 21 21'
_space_group_IT_number 19
_space_group_crystal_system 'orthorhombic'
loop_
_symmetry_equiv_pos_as_xyz
   'x, y, z'
   '-x+0.5, -y, z+0.5'
   'x+0.5, -y+0.5, -z'
   '-x, y+0.5, -z+0.5'
_cell_length_a        7.38490
_cell_length_b        5.83790
_cell_length_c        9.19370
_cell_angle_alpha    90.0000
_cell_angle_beta     90.0000
_cell_angle_gamma    90.0000
loop_
_atom_site_label
_atom_site_fract_x
_atom_site_fract_y
_atom_site_fract_z
_atom_site_occupancy
_atom_site_B_iso_or_equiv
ca      0.117   0.271   0.426    1.00000    0.647
cu      0.005   -0.000   0.749    0.96000    0.734
mg      0.005   -0.000   0.749    0.04000    0.734
as      0.368   -0.235   0.580    1.00000    0.639
o      0.188   -0.255   0.698    1.00000    0.868
o      0.541   -0.167   0.691    1.00000    1.263
o      0.387   0.514   0.491    1.00000    1.184
o      0.355   -0.007   0.470    1.00000    0.947
o      0.139   0.254   0.681    1.00000    0.789
h      0.250   0.260   0.720    1.00000    2.368
_cell_measurement_wavelength    1.541874
_cell_measurement_radiation   'x-rays'
_exptl_crystal_density_diffrn    4.323000
loop_
_pd_peak_d_spacing
_pd_peak_intensity
     5.757481        277.63
     4.928277        245.87
     4.596850          3.75
     4.579739          1.53
     4.099290        396.14
     3.902559        155.96
     3.692450        187.05
     3.611602         13.27
     3.426427        200.13
     3.244397        154.76
     3.120632        914.70
     2.955041         14.17
     2.918950         98.50
     2.878740        234.63
     2.830525       1000.00
     2.782095         11.72
     2.714592          8.36
     2.713424          4.64
     2.603475        795.49
     2.581898        392.69
     2.546942        491.79
     2.464139        162.85
     2.377872        133.34
     2.358179         95.94
     2.337449        140.56
     2.298425         37.52
     2.289870        155.32
     2.268232          0.88
     2.221985         10.96
     2.202199         21.00
     2.194591          1.88
     2.186529          1.60
     2.170070          0.30
     2.138643          0.20
     2.113614          0.10
     2.054236          0.03
     2.049645        212.04
     2.034084         30.76
     2.032025         20.15
     1.951279         67.98
     1.919160         10.09
     1.903788          8.47
     1.881796          0.13
     1.881733          0.33
     1.850640         63.13
     1.846225         43.64
     1.843574         74.66
     1.843515         65.37
     1.834351          1.51
     1.823171        190.97
     1.810089          4.63
     1.805801        209.13
     1.792011         20.34
     1.784264          5.73
     1.760296          0.41
     1.754120          3.94
     1.753805          4.84
     1.741523          6.68
     1.741473         14.37
     1.728891         17.99
     1.721527        125.20
     1.713213        232.84
     1.706346         66.65
     1.692117          2.90
     1.679969          1.78
     1.645951         15.91
     1.643888          0.45
     1.642759          0.17
     1.622199         84.82
     1.614451         27.52
     1.612180         50.71
     1.603602        451.52
     1.603563         95.92
     1.584191          3.21
     1.581418          0.66
     1.560316        190.06
     1.555790          0.03
     1.538319          2.07
     1.532283         65.49
     1.526580          0.45
     1.526406          5.51
     1.522373        219.95
     1.505960         11.16
     1.500920          1.32
     1.500328          0.00
     1.485159          5.72
     1.482082          0.01
     1.477521          9.86
     1.473139         77.28
     1.459475        130.36
     1.458282         58.94
     1.456037          5.63
     1.456007          3.93
     1.453108          1.02
     1.448779         16.92
     1.441426          1.10
     1.439370         45.30
     1.433722         61.55
     1.431865          0.21
     1.431782          1.58
     1.428365         33.30
     1.415263         17.74
     1.414809         19.10
     1.414729         32.32
     1.406179         14.17
     1.397519          1.52
     1.391047          0.04
     1.390464          1.51
     1.377881         24.80
     1.375422        105.08
     1.367080          4.33
     1.367007         12.87
     1.366430         54.93
     1.357296          8.04
     1.356712          8.76
     1.342742         19.86
     1.339352          0.02
     1.336486          6.09
     1.334381          4.57
     1.330516          0.12
     1.325361          5.16
     1.317875          0.12
     1.317676          0.19
     1.315144          3.36
     1.315123         23.26
     1.304540          6.21
     1.302824          1.81
     1.301737         30.64
     1.300853          1.48
     1.297251         46.81
     1.297189        139.10
     1.293095          2.86
     1.290949          0.55
     1.285882          6.19
     1.281359          7.09
     1.273471         27.62
     1.271646          8.43
     1.271545         16.35
     1.269712          2.47
     1.266841         22.87
     1.262495          7.15
     1.256699          1.11
     1.255411          0.07
     1.243868         46.49
     1.242546          0.19
     1.241023          7.03
     1.237437          0.42
     1.232069          4.99
     1.230817         11.12
     1.227262          1.18
     1.219933          8.35
     1.215323          0.46
     1.215272          0.01
     1.211060          2.36
     1.210675         99.24
     1.210541          0.95
     1.204341         53.71
     1.203867          1.03
     1.197726          0.02
     1.194139          5.70
     1.189700          3.66
     1.188936         10.92
     1.188199          0.67
     1.188183          0.13
     1.182278         35.19
     1.179089          2.40
     1.176485          1.35
     1.174541         17.37
     1.168725         30.05
     1.166969          9.31
     1.165021          9.28
     1.161712          1.72
     1.158769         35.78
     1.158277          3.18
     1.157209          8.75
     1.155752          0.22
     1.153255          0.28
     1.151496         27.34
     1.149212          1.80
     1.144935         12.46
     1.144570         50.02
     1.144288         12.83
     1.143273          4.26
     1.143143          0.00
     1.142142          0.12
     1.139749          2.91
     1.139289          6.83
     1.136595          6.27
     1.136158          0.76
     1.135545          4.53
     1.134116          4.00
     1.131647          5.00
     1.129729         14.33
     1.129689          4.57
     1.127573          0.65
     1.125584          1.41
     1.120892          0.83
     1.118590          1.67
     1.114654          2.34
     1.113250         27.23
     1.110993         69.00
     1.105178          0.63
     1.101772          0.31
     1.101100         13.80
     1.098330         27.94
     1.097295          8.11
     1.093264        122.97
     1.092008          5.24
     1.091074          0.41
     1.088635          3.82
     1.085035          6.26
     1.082597          8.95
     1.081974         12.79
     1.081466          0.12
     1.079358         16.83
     1.078411         23.98
     1.077008          3.80
     1.076996          4.76
     1.072527          1.89
     1.071160          0.33
     1.070210          0.60
     1.069321         56.21
     1.066766          6.23
     1.063619          1.35
     1.063396          0.07
     1.058285          2.12
     1.056807         36.48
     1.054930          0.01
     1.052668          3.73
     1.048108          1.42
     1.048053          8.85
     1.047262          0.08
     1.046350          0.95
     1.046182          0.30
     1.046149          0.06
     1.044198          0.91
     1.041324          0.90
     1.040967          3.77
     1.040211         25.01
     1.038170          0.68
     1.038138          0.01
     1.036802         40.00
     1.033616          2.49
     1.031614          3.68
     1.031582         36.46
     1.030777          2.11
     1.028254          0.03
     1.028202          4.70
     1.027118         11.76
     1.025143          2.60
     1.024823         25.82
     1.022818          0.37
     1.017042         14.63
     1.016013         13.53
     1.014559          6.42
     1.012665          9.95
     1.012636          5.61
     1.011887         35.43
     1.008420          0.42
     1.007473          1.65
##############################################################################
###                            Comments                                    ###
##############################################################################
###   Higgins mine, Arizona, USA
###   Diffraction pattern calculated by Match!. 
###   I/Ic calculated by Match!. 
###   Space group has been derived from given symmetry operations. 
##############################################################################


