##############################################################################
###               Crystal structure data exported by Match!                ###
##############################################################################
###                           Data published by:                           ###
###                                                                        ###
###               COD (Crystallography Open Database)
##############################################################################
data_8104269
_citation_journal_full    'Zeitschrift fuer Kristallographie, Kristallgeometrie, Kristallphysik,Kristallchemie (-144,1977)'
_citation_journal_volume  '68'
_citation_page_first  '239'
_citation_page_last   '256'
_citation_year  '1928'
_citation_title  'The crystal structure of brookite'
loop_
_publ_author_name
  'Pauling L.'
  'Sturdivant J.H.'
_chemical_formula_sum  'O2 Ti'
_chemical_name_common  'Titanium(IV) oxide'
_symmetry_space_group_name_H-M 'P b c a'
_space_group_IT_number 61
_space_group_crystal_system 'orthorhombic'
loop_
_symmetry_equiv_pos_as_xyz
   'x, y, z'
   '-x+0.5, -y, z+0.5'
   'x+0.5, -y+0.5, -z'
   '-x, y+0.5, -z+0.5'
   '-x, -y, -z'
   'x+0.5, y, -z+0.5'
   '-x+0.5, y+0.5, z'
   'x, -y+0.5, z+0.5'
_cell_length_a        9.18500
_cell_length_b        5.44700
_cell_length_c        5.14500
_cell_angle_alpha    90.0000
_cell_angle_beta     90.0000
_cell_angle_gamma    90.0000
_cell_formula_units_Z 8
loop_
_atom_site_label
_atom_site_fract_x
_atom_site_fract_y
_atom_site_fract_z
_atom_site_occupancy
_atom_site_B_iso_or_equiv
o      0.230   0.105   0.535    1.00000    1.000
o      0.010   0.155   0.180    1.00000    1.000
ti      0.127   0.113   0.873    1.00000    1.000
_cell_measurement_wavelength    1.541874
_cell_measurement_radiation   'x-rays'
_exptl_crystal_density_diffrn    4.122000
loop_
_pd_peak_d_spacing
_pd_peak_intensity
     4.592500          0.49
     3.511091       1000.00
     3.464071        616.52
     2.900136        595.63
     2.723500          4.98
     2.572500          1.72
     2.477176        194.22
     2.407059        139.39
     2.369151         48.20
     2.342552         24.17
     2.328431         33.74
     2.296250         33.32
     2.254940         48.17
     2.244376        122.24
     2.131969        104.64
     2.115919          1.49
     2.075125          0.04
     1.969554        169.82
     1.956894          5.25
     1.892275        305.33
     1.870137          5.05
     1.852191        195.51
     1.832537          2.83
     1.755545          7.11
     1.732035          0.01
     1.713066          1.10
     1.688495        139.45
     1.683184         44.46
     1.661487        247.44
     1.648864         51.99
     1.634155          4.21
     1.610492         89.68
     1.604309         32.78
     1.595958          5.68
     1.540995         69.30
     1.530833          1.00
     1.494966         83.78
     1.494376          2.29
     1.473738         17.59
     1.464425         50.18
     1.460316         88.98
     1.451240         72.51
     1.450068          2.85
     1.442806         17.14
     1.441654         71.97
     1.433458         94.39
     1.424229          1.94
     1.416762         49.33
     1.411589          0.17
     1.383793          1.92
     1.372609          1.21
     1.361750         66.01
     1.334963         47.68
     1.334475          1.14
     1.332324          0.81
     1.316421          9.94
     1.315528          7.19
     1.311379         12.95
     1.310514          1.41
     1.305565          0.19
     1.303105          0.02
     1.291732          4.61
     1.286250         19.66
     1.278762          0.47
     1.273820          2.67
     1.265459          1.82
     1.252498          3.64
     1.246014          1.28
     1.240355          3.02
     1.238588          1.70
     1.238162         34.83
     1.235428         25.63
     1.226772         18.42
     1.221665          1.30
     1.209369          4.81
     1.207757         31.42
     1.203529          0.17
     1.203208         11.60
     1.193329         24.79
     1.185851          1.63
     1.184576          0.02
     1.171276         10.81
     1.170364         14.93
     1.168873         15.01
     1.164216          7.48
     1.163065          0.27
     1.158710          5.47
     1.154690          0.30
     1.154099         29.24
     1.153851          0.26
     1.152085          3.67
     1.148125         30.57
     1.142855         10.14
     1.142056          0.05
     1.141210         12.82
     1.138759          5.80
     1.127470          0.02
     1.123440          0.03
     1.122188         35.84
     1.120096         30.06
     1.117741          9.98
     1.099105          0.04
     1.097579          0.13
     1.095673          0.06
     1.087257          0.03
     1.074126          0.11
     1.070036          3.92
     1.066450          1.38
     1.065985          0.39
     1.065297          1.22
     1.059985          4.73
     1.059334          2.90
     1.058668          7.76
     1.057960          0.24
     1.053643          0.05
     1.053196          0.00
     1.048444          0.05
     1.042784          0.00
     1.041480          9.79
     1.038809          0.70
     1.038182         21.04
     1.037562          1.90
     1.036278         13.53
     1.034467          1.02
     1.031604          0.02
     1.029546          1.59
     1.023550          8.18
     1.023189         29.12
     1.017452          0.15
     1.007103          0.03
     1.006711         29.92
     1.006531          6.67
##############################################################################
###                            Comments                                    ###
##############################################################################
###   Diffraction pattern calculated by Match!. 
###   I/Ic calculated by Match!. 
###   Space group has been derived from given symmetry operations. 
##############################################################################


