##############################################################################
###               Crystal structure data exported by Match!                ###
##############################################################################
###                           Data published by:                           ###
###                                                                        ###
###               COD (Crystallography Open Database)
##############################################################################
data_9015417
_citation_journal_full    'Crystallography Reports'
_citation_journal_volume  '50'
_citation_page_first  '902'
_citation_page_last   '906'
_citation_year  '2005'
_citation_title  'Crystal structure of celadonite from the electron diffraction data'
loop_
_publ_author_name
  'Zhukhlistov A. P.'
_chemical_formula_sum  'Al0.42 Ca0.04 Fe1.3 H2 K0.78 Mg0.58 O12 Si3.68 Ti0.02'
_chemical_name_mineral  'Celadonite'
_symmetry_space_group_name_H-M 'C 1 2/m 1'
_space_group_IT_number 12
_space_group_crystal_system 'monoclinic'
loop_
_symmetry_equiv_pos_as_xyz
   'x, y, z'
   'x+0.5, y+0.5, z'
   '-x, y, -z'
   '-x+0.5, y+0.5, -z'
   '-x, -y, -z'
   '-x+0.5, -y+0.5, -z'
   'x, -y, z'
   'x+0.5, -y+0.5, z'
_cell_length_a        5.22700
_cell_length_b        9.05300
_cell_length_c       10.15300
_cell_angle_alpha    90.0000
_cell_angle_beta    100.5300
_cell_angle_gamma    90.0000
loop_
_atom_site_label
_atom_site_fract_x
_atom_site_fract_y
_atom_site_fract_z
_atom_site_occupancy
_atom_site_B_iso_or_equiv
k      0.500   0.000   0.500    0.78000    0.817
ca      0.500   0.000   0.500    0.04000    0.817
fe      0.500   0.166   0.000    0.51000    0.569
al      0.500   0.166   0.000    0.05000    0.569
mg      0.500   0.166   0.000    0.29000    0.569
fe      0.500   0.166   0.000    0.14000    0.569
ti      0.500   0.166   0.000    0.01000    0.569
si      0.414   0.333   0.274    0.92000    0.633
al      0.414   0.333   0.274    0.08000    0.633
o      0.188   0.251   0.335    1.00000    0.997
o      0.443   0.500   0.332    1.00000    1.050
o      0.368   0.326   0.114    1.00000    1.136
o      0.395   0.000   0.113    1.00000    0.825
h      0.204   0.000   0.105    1.00000    4.448
_cell_measurement_wavelength    1.541874
_cell_measurement_radiation   'x-rays'
_exptl_crystal_density_diffrn    3.012000
loop_
_pd_peak_d_spacing
_pd_peak_intensity
     9.982017       1000.00
     4.991008         18.23
     4.526500        371.67
     4.469127          0.54
     4.344613        368.38
     4.122450        143.61
     3.856765          0.07
     3.628305        549.49
     3.352941         95.31
     3.327339        341.69
     3.094005        616.54
     2.898654         87.72
     2.680948        275.08
     2.605997         37.62
     2.602193         72.68
     2.576920        378.54
     2.569487        167.08
     2.495504         35.17
     2.486306          1.33
     2.476075          0.01
     2.463017          3.67
     2.400259        382.02
     2.385354        220.42
     2.343111         54.72
     2.263250          6.09
     2.258452         97.20
     2.241471         26.52
     2.234564         10.61
     2.224562         43.73
     2.207227         96.58
     2.185391         13.22
     2.172307          5.20
     2.148532        176.84
     2.131484        100.64
     2.110270         72.50
     2.061225          0.24
     2.044887          3.50
     2.008684         30.11
     1.996403         58.11
     1.980143         40.82
     1.963505        116.93
     1.941315         26.44
     1.928382         21.94
     1.890646         25.16
     1.874690          4.98
     1.871369          2.37
     1.826632          3.36
     1.814152         41.61
     1.737847          1.25
     1.732021          0.24
     1.723639          7.62
     1.723223          0.72
     1.710829         34.96
     1.708781          0.00
     1.707707          0.01
     1.700505         20.08
     1.698363          9.98
     1.689374          4.55
     1.683125         19.66
     1.676471         42.87
     1.670542          1.83
     1.666515          0.49
     1.663669         15.30
     1.659867        202.04
     1.647076          9.73
     1.646666         48.93
     1.646124         86.67
     1.641830         42.58
     1.623942         10.14
     1.622386          0.42
     1.612892          4.52
     1.592604         68.64
     1.586504         55.04
     1.561539          0.13
     1.558219          5.59
     1.551679          7.68
     1.547003          7.95
     1.529868         56.14
     1.528421         35.54
     1.517580         86.32
     1.514649         35.13
     1.508833         89.47
     1.508814        171.81
     1.497170         16.14
     1.494037         20.05
     1.491886         28.54
     1.490275          0.05
     1.489709         34.35
     1.483940         22.34
     1.483143          0.08
     1.464540         11.88
     1.453071          8.26
     1.450982         10.43
     1.449327          0.09
     1.448204          5.23
     1.444279          2.35
     1.443732          6.34
     1.440352          1.09
     1.426002         17.94
     1.425725          0.78
     1.418449          2.82
     1.403801          6.24
     1.383532         44.57
     1.379236          9.44
     1.378376          2.06
     1.374150          3.74
     1.371044          0.56
     1.369091          0.78
     1.360106         17.88
     1.356466         46.63
     1.346285         94.38
     1.340474          9.73
     1.338483          7.63
     1.331245          7.67
     1.306281          0.55
     1.305763         30.24
     1.304780         11.80
     1.302998         40.30
     1.302363          6.21
     1.301097         63.84
     1.300006          0.09
     1.299376         45.58
     1.296810         28.45
     1.292867          3.21
     1.291994          0.95
     1.291174         32.61
     1.288460          3.01
     1.285588         34.68
     1.284744          0.02
     1.279660         13.82
     1.275148         53.02
     1.267464          2.58
     1.260450          3.01
     1.255414         12.35
     1.254542          9.44
     1.254179          0.40
     1.253733          0.41
     1.252152         10.54
     1.251671         31.11
     1.251318          5.79
     1.247752         18.61
     1.246863          1.95
     1.245735         16.63
     1.244344          6.88
     1.243153          8.68
     1.238038          0.08
     1.237587          0.28
     1.235926          0.60
     1.231509          1.43
     1.231398         13.66
     1.229563          2.93
     1.229393         12.54
     1.222753          6.49
     1.219849          3.37
     1.215145          1.65
     1.212884          2.40
     1.209435          6.15
     1.206491         22.97
     1.204450          8.27
     1.203740         22.82
     1.203721          4.23
     1.202888          1.04
     1.201080         16.21
     1.200129          0.53
     1.199406          0.47
     1.198069          1.38
     1.194177          1.84
     1.192677          3.63
     1.191244          3.67
     1.186137          0.21
     1.183244          9.55
     1.177770         11.39
     1.175418          7.26
     1.171555          1.58
     1.171434         10.86
     1.168025          0.08
     1.163496          6.82
     1.160141          0.02
     1.157053         11.02
     1.156675          0.01
     1.155181          1.89
     1.153314          0.00
     1.144778          4.99
     1.141224          2.11
     1.139333          0.11
     1.131625          0.16
     1.131060          0.07
     1.130385          7.88
     1.129226          0.35
     1.128812          0.98
     1.125191          0.89
     1.124423          7.80
     1.123817          2.02
     1.123138          0.11
     1.122612          0.12
     1.120736         25.65
     1.118830          2.32
     1.117837          2.12
     1.117647          0.00
     1.117282          0.11
     1.113934          8.55
     1.112281         44.73
     1.112221          0.07
     1.109113          1.94
     1.103613          0.08
     1.101432         11.69
     1.101084          0.14
     1.097322          0.02
     1.093610          0.36
     1.092695          2.54
     1.091340          3.18
     1.089441          6.46
     1.087886          2.07
     1.086579          2.50
     1.086153          0.21
     1.084004          3.09
     1.077246          0.96
     1.074266         43.44
     1.071359          0.59
     1.069049          0.22
     1.066685          0.06
     1.065742         16.16
     1.063260          0.04
     1.063025          0.19
     1.058863          0.22
     1.056163         27.18
     1.055198          0.04
     1.055135          3.52
     1.049570         14.67
     1.048587          0.00
     1.046635          0.14
     1.041491         20.85
     1.041289          0.53
     1.038564          1.06
     1.038444          3.81
     1.038214          0.16
     1.037986          0.19
     1.037950          3.85
     1.037377          0.63
     1.036382         21.04
     1.035637          1.38
     1.035141          0.53
     1.033589          0.50
     1.032406          3.67
     1.032153          2.61
     1.031335         18.04
     1.030612          4.23
     1.030165          0.15
     1.029230          0.00
     1.027644          0.85
     1.023670          2.35
     1.022444          8.81
     1.022407          9.19
     1.021234          8.03
     1.018044          1.57
     1.015305          1.04
     1.013500          0.24
     1.011752          0.00
     1.011743         12.97
     1.010186         10.82
     1.008906          2.44
     1.008746         13.52
##############################################################################
###                            Comments                                    ###
##############################################################################
###   Krivoi mine, Khibiny Massif, Kola Peninsula, Russia
###   Diffraction pattern calculated by Match!. 
###   I/Ic calculated by Match!. 
###   Space group has been derived from given symmetry operations. 
##############################################################################


