##############################################################################
###               Crystal structure data exported by Match!                ###
##############################################################################
###                           Data published by:                           ###
###                                                                        ###
###               COD (Crystallography Open Database)
##############################################################################
data_9012043
_citation_journal_full    'Journal of Applied Physics'
_citation_journal_volume  '32'
_citation_page_first  '1536'
_citation_page_last   '1546'
_citation_year  '1961'
_citation_title  'Lattice parameter determinations with an X-ray spectrogoniometer bythe Debye-Scherrer method and the effect of specimen conditionLocality: synthetic'
loop_
_publ_author_name
  'Otte H. M.'
_chemical_formula_sum  'Cu'
_chemical_name_mineral  'Copper'
_chemical_name_common  'Copper'
_symmetry_space_group_name_H-M 'F m -3 m'
_space_group_IT_number 225
_space_group_crystal_system 'cubic'
loop_
_symmetry_equiv_pos_as_xyz
   'x, y, z'
   'x+0.5, y+0.5, z'
   'x+0.5, y, z+0.5'
   'x, y+0.5, z+0.5'
   '-y, x, z'
   '-y+0.5, x+0.5, z'
   '-y+0.5, x, z+0.5'
   '-y, x+0.5, z+0.5'
   '-x, -y, z'
   '-x+0.5, -y+0.5, z'
   '-x+0.5, -y, z+0.5'
   '-x, -y+0.5, z+0.5'
   'y, -x, z'
   'y+0.5, -x+0.5, z'
   'y+0.5, -x, z+0.5'
   'y, -x+0.5, z+0.5'
   'x, -z, y'
   'x+0.5, -z+0.5, y'
   'x+0.5, -z, y+0.5'
   'x, -z+0.5, y+0.5'
   'x, -y, -z'
   'x+0.5, -y+0.5, -z'
   'x+0.5, -y, -z+0.5'
   'x, -y+0.5, -z+0.5'
   'x, z, -y'
   'x+0.5, z+0.5, -y'
   'x+0.5, z, -y+0.5'
   'x, z+0.5, -y+0.5'
   'z, y, -x'
   'z+0.5, y+0.5, -x'
   'z+0.5, y, -x+0.5'
   'z, y+0.5, -x+0.5'
   '-x, y, -z'
   '-x+0.5, y+0.5, -z'
   '-x+0.5, y, -z+0.5'
   '-x, y+0.5, -z+0.5'
   '-z, y, x'
   '-z+0.5, y+0.5, x'
   '-z+0.5, y, x+0.5'
   '-z, y+0.5, x+0.5'
   'z, x, y'
   'z+0.5, x+0.5, y'
   'z+0.5, x, y+0.5'
   'z, x+0.5, y+0.5'
   'y, z, x'
   'y+0.5, z+0.5, x'
   'y+0.5, z, x+0.5'
   'y, z+0.5, x+0.5'
   '-y, -z, x'
   '-y+0.5, -z+0.5, x'
   '-y+0.5, -z, x+0.5'
   '-y, -z+0.5, x+0.5'
   'z, -x, -y'
   'z+0.5, -x+0.5, -y'
   'z+0.5, -x, -y+0.5'
   'z, -x+0.5, -y+0.5'
   '-y, z, -x'
   '-y+0.5, z+0.5, -x'
   '-y+0.5, z, -x+0.5'
   '-y, z+0.5, -x+0.5'
   '-z, -x, y'
   '-z+0.5, -x+0.5, y'
   '-z+0.5, -x, y+0.5'
   '-z, -x+0.5, y+0.5'
   '-z, x, -y'
   '-z+0.5, x+0.5, -y'
   '-z+0.5, x, -y+0.5'
   '-z, x+0.5, -y+0.5'
   'y, -z, -x'
   'y+0.5, -z+0.5, -x'
   'y+0.5, -z, -x+0.5'
   'y, -z+0.5, -x+0.5'
   'y, x, -z'
   'y+0.5, x+0.5, -z'
   'y+0.5, x, -z+0.5'
   'y, x+0.5, -z+0.5'
   '-y, -x, -z'
   '-y+0.5, -x+0.5, -z'
   '-y+0.5, -x, -z+0.5'
   '-y, -x+0.5, -z+0.5'
   '-x, z, y'
   '-x+0.5, z+0.5, y'
   '-x+0.5, z, y+0.5'
   '-x, z+0.5, y+0.5'
   '-x, -z, -y'
   '-x+0.5, -z+0.5, -y'
   '-x+0.5, -z, -y+0.5'
   '-x, -z+0.5, -y+0.5'
   'z, -y, x'
   'z+0.5, -y+0.5, x'
   'z+0.5, -y, x+0.5'
   'z, -y+0.5, x+0.5'
   '-z, -y, -x'
   '-z+0.5, -y+0.5, -x'
   '-z+0.5, -y, -x+0.5'
   '-z, -y+0.5, -x+0.5'
   '-x, -y, -z'
   '-x+0.5, -y+0.5, -z'
   '-x+0.5, -y, -z+0.5'
   '-x, -y+0.5, -z+0.5'
   'y, -x, -z'
   'y+0.5, -x+0.5, -z'
   'y+0.5, -x, -z+0.5'
   'y, -x+0.5, -z+0.5'
   'x, y, -z'
   'x+0.5, y+0.5, -z'
   'x+0.5, y, -z+0.5'
   'x, y+0.5, -z+0.5'
   '-y, x, -z'
   '-y+0.5, x+0.5, -z'
   '-y+0.5, x, -z+0.5'
   '-y, x+0.5, -z+0.5'
   '-x, z, -y'
   '-x+0.5, z+0.5, -y'
   '-x+0.5, z, -y+0.5'
   '-x, z+0.5, -y+0.5'
   '-x, y, z'
   '-x+0.5, y+0.5, z'
   '-x+0.5, y, z+0.5'
   '-x, y+0.5, z+0.5'
   '-x, -z, y'
   '-x+0.5, -z+0.5, y'
   '-x+0.5, -z, y+0.5'
   '-x, -z+0.5, y+0.5'
   '-z, -y, x'
   '-z+0.5, -y+0.5, x'
   '-z+0.5, -y, x+0.5'
   '-z, -y+0.5, x+0.5'
   'x, -y, z'
   'x+0.5, -y+0.5, z'
   'x+0.5, -y, z+0.5'
   'x, -y+0.5, z+0.5'
   'z, -y, -x'
   'z+0.5, -y+0.5, -x'
   'z+0.5, -y, -x+0.5'
   'z, -y+0.5, -x+0.5'
   '-z, -x, -y'
   '-z+0.5, -x+0.5, -y'
   '-z+0.5, -x, -y+0.5'
   '-z, -x+0.5, -y+0.5'
   '-y, -z, -x'
   '-y+0.5, -z+0.5, -x'
   '-y+0.5, -z, -x+0.5'
   '-y, -z+0.5, -x+0.5'
   'y, z, -x'
   'y+0.5, z+0.5, -x'
   'y+0.5, z, -x+0.5'
   'y, z+0.5, -x+0.5'
   '-z, x, y'
   '-z+0.5, x+0.5, y'
   '-z+0.5, x, y+0.5'
   '-z, x+0.5, y+0.5'
   'y, -z, x'
   'y+0.5, -z+0.5, x'
   'y+0.5, -z, x+0.5'
   'y, -z+0.5, x+0.5'
   'z, x, -y'
   'z+0.5, x+0.5, -y'
   'z+0.5, x, -y+0.5'
   'z, x+0.5, -y+0.5'
   'z, -x, y'
   'z+0.5, -x+0.5, y'
   'z+0.5, -x, y+0.5'
   'z, -x+0.5, y+0.5'
   '-y, z, x'
   '-y+0.5, z+0.5, x'
   '-y+0.5, z, x+0.5'
   '-y, z+0.5, x+0.5'
   '-y, -x, z'
   '-y+0.5, -x+0.5, z'
   '-y+0.5, -x, z+0.5'
   '-y, -x+0.5, z+0.5'
   'y, x, z'
   'y+0.5, x+0.5, z'
   'y+0.5, x, z+0.5'
   'y, x+0.5, z+0.5'
   'x, -z, -y'
   'x+0.5, -z+0.5, -y'
   'x+0.5, -z, -y+0.5'
   'x, -z+0.5, -y+0.5'
   'x, z, y'
   'x+0.5, z+0.5, y'
   'x+0.5, z, y+0.5'
   'x, z+0.5, y+0.5'
   '-z, y, -x'
   '-z+0.5, y+0.5, -x'
   '-z+0.5, y, -x+0.5'
   '-z, y+0.5, -x+0.5'
   'z, y, x'
   'z+0.5, y+0.5, x'
   'z+0.5, y, x+0.5'
   'z, y+0.5, x+0.5'
_cell_length_a        3.61500
_cell_length_b        3.61500
_cell_length_c        3.61500
_cell_angle_alpha    90.0000
_cell_angle_beta     90.0000
_cell_angle_gamma    90.0000
loop_
_atom_site_label
_atom_site_fract_x
_atom_site_fract_y
_atom_site_fract_z
_atom_site_occupancy
_atom_site_B_iso_or_equiv
cu      0.000   0.000   0.000    1.00000    1.000
_cell_measurement_wavelength    1.541874
_cell_measurement_radiation   'x-rays'
_exptl_crystal_density_diffrn    8.935000
loop_
_pd_peak_d_spacing
_pd_peak_intensity
     2.087121       1000.00
     1.807500        450.36
     1.278096        219.78
     1.089964        232.24
     1.043561         66.98
     0.903750         38.33
     0.829338        174.61
     0.808339        203.11
##############################################################################
###                            Comments                                    ###
##############################################################################
###   Diffraction pattern calculated by Match!. 
###   I/Ic calculated by Match!. 
##############################################################################


