##############################################################################
###               Crystal structure data exported by Match!                ###
##############################################################################
###                           Data published by:                           ###
###                                                                        ###
###               COD (Crystallography Open Database)
##############################################################################
data_1011267
_citation_journal_full    'Skrifter utgitt av det Norske Videnskaps-Akademi i Oslo 1: Matematisk-Naturvidenskapelig Klasse'
_citation_journal_volume  '1928'
_citation_page_first  '1'
_citation_page_last   '165'
_citation_year  '1928'
_citation_title  'Untersuchungen ueber die Kristallstruktur von Sesquioxyden undVerbindungen ABO3'
loop_
_publ_author_name
  'Zachariasen W H'
_chemical_formula_sum  'Fe2 O3'
_chemical_name_mineral  'Hematite'
_chemical_name_common  'Iron(III) oxide'
_symmetry_space_group_name_H-M 'R -3 c'
_space_group_IT_number 167
_space_group_crystal_system 'trigonal (rhombohedral axes)'
loop_
_symmetry_equiv_pos_as_xyz
   'x, y, z'
   'z, x, y'
   'y, z, x'
   '-y+0.5, -x+0.5, -z+0.5'
   '-x+0.5, -z+0.5, -y+0.5'
   '-z+0.5, -y+0.5, -x+0.5'
   '-x, -y, -z'
   '-z, -x, -y'
   '-y, -z, -x'
   'y+0.5, x+0.5, z+0.5'
   'x+0.5, z+0.5, y+0.5'
   'z+0.5, y+0.5, x+0.5'
_cell_length_a        5.43100
_cell_length_b        5.43100
_cell_length_c        5.43100
_cell_angle_alpha    55.2300
_cell_angle_beta     55.2300
_cell_angle_gamma    55.2300
_cell_formula_units_Z 2
loop_
_atom_site_label
_atom_site_fract_x
_atom_site_fract_y
_atom_site_fract_z
_atom_site_occupancy
_atom_site_B_iso_or_equiv
fe      0.100   0.100   0.100    1.00000    1.000
o      -0.300   0.800   0.250    1.00000    1.000
_cell_measurement_wavelength    1.541874
_cell_measurement_radiation   'x-rays'
_exptl_crystal_density_diffrn    5.266000
_exptl_crystal_density_meas      5.260000
loop_
_pd_peak_d_spacing
_pd_peak_intensity
     3.683157        537.41
     2.701034       1000.00
     2.517421        657.05
     2.293790        338.41
     2.206971         31.99
     2.078338          0.72
     1.841579         72.18
     1.695514        211.04
     1.636349          7.00
     1.602716         58.33
     1.600289          7.42
     1.486333        217.18
     1.453434        118.69
     1.413972          3.39
     1.350517         32.77
     1.312448         96.69
     1.306960          2.79
     1.263015          1.91
     1.258710         97.85
     1.227719         75.11
     1.204688          5.47
     1.191077         20.57
     1.190080          5.65
     1.163784         25.23
     1.146895          5.94
     1.140909         78.67
     1.107183          3.71
     1.103485         80.33
     1.076650          0.73
     1.056366         78.42
     1.043686          2.53
     1.039169         13.34
     1.030072          2.81
##############################################################################
###                            Comments                                    ###
##############################################################################
###   Diffraction pattern calculated by Match!. 
###   I/Ic calculated by Match!. 
###   Space group has been derived from given symmetry operations. 
##############################################################################


