##############################################################################
###               Crystal structure data exported by Match!                ###
##############################################################################
###                           Data published by:                           ###
###                                                                        ###
###               COD (Crystallography Open Database)
##############################################################################
data_9010439
_citation_journal_full    'American Mineralogist'
_citation_journal_volume  '93'
_citation_page_first  '853'
_citation_page_last   '862'
_citation_year  '2008'
_citation_title  'Crystal chemistry of the natrojarosite-jarosite and natrojarosite-hydroniumjarosite solid-solution: A synthetic study with full Fe site occupancyLocality: syntheticSample: K'
loop_
_publ_author_name
  'Basciano L. C.'
  'Peterson R. C.'
_chemical_formula_sum  'Fe3 H6 K0.76 Na0.24 O14 S2'
_chemical_name_mineral  'Jarosite'
_symmetry_space_group_name_H-M 'R -3 m'
_space_group_IT_number 166
_space_group_crystal_system 'trigonal (hexagonal axes)'
loop_
_symmetry_equiv_pos_as_xyz
   'x, y, z'
   'x+0.66667, y+0.33333, z+0.33333'
   'x+0.33333, y+0.66667, z+0.66667'
   '-y, x-y, z'
   '-y+0.66667, x-y+0.33333, z+0.33333'
   '-y+0.33333, x-y+0.66667, z+0.66667'
   '-x+y, -x, z'
   '-x+y+0.66667, -x+0.33333, z+0.33333'
   '-x+y+0.33333, -x+0.66667, z+0.66667'
   'x-y, -y, -z'
   'x-y+0.66667, -y+0.33333, -z+0.33333'
   'x-y+0.33333, -y+0.66667, -z+0.66667'
   '-x, -x+y, -z'
   '-x+0.66667, -x+y+0.33333, -z+0.33333'
   '-x+0.33333, -x+y+0.66667, -z+0.66667'
   'y, x, -z'
   'y+0.66667, x+0.33333, -z+0.33333'
   'y+0.33333, x+0.66667, -z+0.66667'
   '-x, -y, -z'
   '-x+0.66667, -y+0.33333, -z+0.33333'
   '-x+0.33333, -y+0.66667, -z+0.66667'
   'y, -x+y, -z'
   'y+0.66667, -x+y+0.33333, -z+0.33333'
   'y+0.33333, -x+y+0.66667, -z+0.66667'
   'x-y, x, -z'
   'x-y+0.66667, x+0.33333, -z+0.33333'
   'x-y+0.33333, x+0.66667, -z+0.66667'
   '-x+y, y, z'
   '-x+y+0.66667, y+0.33333, z+0.33333'
   '-x+y+0.33333, y+0.66667, z+0.66667'
   'x, x-y, z'
   'x+0.66667, x-y+0.33333, z+0.33333'
   'x+0.33333, x-y+0.66667, z+0.66667'
   '-y, -x, z'
   '-y+0.66667, -x+0.33333, z+0.33333'
   '-y+0.33333, -x+0.66667, z+0.66667'
_cell_length_a        7.30450
_cell_length_b        7.30450
_cell_length_c       17.08750
_cell_angle_alpha    90.0000
_cell_angle_beta     90.0000
_cell_angle_gamma   120.0000
loop_
_atom_site_label
_atom_site_fract_x
_atom_site_fract_y
_atom_site_fract_z
_atom_site_occupancy
_atom_site_B_iso_or_equiv
k      0.000   0.000   0.000    0.76000    0.700
na      0.000   0.000   0.000    0.24000    0.700
fe      0.167   -0.167   -0.167    1.00000    2.270
s      0.000   0.000   0.309    1.00000    1.599
o      0.000   0.000   0.395    1.00000    2.400
o      0.223   -0.223   -0.054    1.00000    1.899
o      0.128   -0.128   0.133    1.00000    0.600
h      0.165   -0.165   0.168    1.00000    1.999
_cell_measurement_wavelength    1.541874
_cell_measurement_radiation   'x-rays'
_exptl_crystal_density_diffrn    3.135000
loop_
_pd_peak_d_spacing
_pd_peak_intensity
     5.932408        291.27
     5.695833        253.60
     5.084011        590.03
     3.652250         90.00
     3.540244         28.24
     3.110109        610.79
     3.074489       1000.00
     3.006774         10.32
     2.966204        115.31
     2.847917        188.96
     2.542006        192.78
     2.367891         16.26
     2.321320          7.65
     2.302498         19.93
     2.277392        286.08
     2.245839          0.74
     2.108628          1.73
     2.086395          0.10
     2.023692          1.59
     1.977469        302.24
     1.959097         10.21
     1.932475         74.65
     1.898611         41.64
     1.826125        293.29
     1.770122         45.66
     1.745308          3.15
     1.738939         40.19
     1.718621         28.21
     1.708105         23.87
     1.694670          0.35
     1.684585         21.63
     1.649627          2.06
     1.622937         22.19
     1.592895         37.70
     1.574741         26.82
     1.560814         36.45
     1.555055         49.49
     1.537245        142.66
     1.508590          0.87
     1.503387        165.40
     1.483102         47.65
     1.446051         19.05
     1.435245         16.48
     1.430763         18.64
     1.424678         23.35
     1.423958          1.25
     1.410945         28.26
     1.394324         22.20
     1.390213          0.00
     1.380421          7.63
     1.374126          6.43
     1.355747          1.45
     1.341583         72.24
     1.335803          0.73
     1.327271         14.10
     1.326689          0.62
     1.316145         17.75
     1.302624          0.78
     1.286935         11.47
     1.271003          3.07
     1.261723          0.00
     1.251529          1.73
     1.247450         50.82
     1.242188          2.27
     1.224118         12.98
     1.217417         19.40
     1.213786          1.05
     1.213092          0.46
     1.200391          0.00
     1.198432          0.05
     1.192564         14.41
     1.190526         16.89
     1.186482          0.04
     1.183945          8.88
     1.180081          6.06
     1.163049          0.27
     1.160660         22.23
     1.151841         31.14
     1.151249         24.30
     1.139167          0.07
     1.138696          6.12
     1.133659          0.34
     1.128430         24.44
     1.126247          4.87
     1.123272          2.44
     1.122919         13.47
     1.119426          0.01
     1.116504         10.15
     1.108214          9.80
     1.106147          0.88
     1.097992          0.53
     1.088547          3.14
     1.087495          1.46
     1.087085          7.04
     1.078142          8.20
     1.073641          0.10
     1.060469          0.11
     1.054314         12.26
     1.053067          0.31
     1.051953         15.97
     1.043197         10.40
     1.038048          0.17
     1.036703          3.53
     1.032349          1.16
     1.030056          3.03
     1.024830          0.94
     1.016802          0.01
     1.012952          1.05
     1.011846         15.23
     1.010857          0.13
     1.010457          0.41
##############################################################################
###                            Comments                                    ###
##############################################################################
###   Diffraction pattern calculated by Match!. 
###   I/Ic calculated by Match!. 
##############################################################################


