##############################################################################
###               Crystal structure data exported by Match!                ###
##############################################################################
###                           Data published by:                           ###
###                                                                        ###
###               COD (Crystallography Open Database)
##############################################################################
data_9009666
_citation_journal_full    'Journal of Applied Crystallography'
_citation_journal_volume  '33'
_citation_page_first  '267'
_citation_page_last   '278'
_citation_year  '2000'
_citation_title  'Accuracy of XRPD QPA using the combined Rietveld-RIR methodLocality: Baveno, Novara, Italy'
loop_
_publ_author_name
  'Gualtieri A. F.'
_chemical_formula_sum  'O2 Si'
_chemical_name_mineral  'Quartz'
_symmetry_space_group_name_H-M 'P 31 2 1'
_space_group_IT_number 152
_space_group_crystal_system 'trigonal (hexagonal axes)'
loop_
_symmetry_equiv_pos_as_xyz
   'x, y, z'
   '-y, x-y, z+0.33333'
   '-x+y, -x, z+0.66667'
   'x-y, -y, -z+0.66667'
   '-x, -x+y, -z+0.33333'
   'y, x, -z'
_cell_length_a        4.91580
_cell_length_b        4.91580
_cell_length_c        5.40910
_cell_angle_alpha    90.0000
_cell_angle_beta     90.0000
_cell_angle_gamma   120.0000
loop_
_atom_site_label
_atom_site_fract_x
_atom_site_fract_y
_atom_site_fract_z
_atom_site_occupancy
_atom_site_B_iso_or_equiv
si      0.530   0.000   0.333    1.00000    1.737
o      0.146   0.414   -0.119    1.00000    1.500
_cell_measurement_wavelength    1.541874
_cell_measurement_radiation   'x-rays'
_exptl_crystal_density_diffrn    2.644000
loop_
_pd_peak_d_spacing
_pd_peak_intensity
     4.257208        204.96
     3.345356       1000.00
     2.457900         70.10
     2.282837         68.54
     2.237712         31.12
     2.128604         47.59
     1.980752         31.26
     1.818960        113.39
     1.803033          2.30
     1.672678         35.65
     1.660268         14.80
     1.609073          2.38
     1.542280         76.68
     1.453813         14.53
     1.419069          3.55
     1.382840         44.96
     1.375803         53.52
     1.372619         34.31
     1.288818         17.20
     1.256598         21.18
     1.228950         10.69
     1.200526         23.11
     1.198408          6.16
     1.184797         18.39
     1.180737         20.82
     1.153573         12.86
     1.141418          2.16
     1.118856          0.32
     1.115119          2.14
     1.082108         20.62
     1.064302          3.15
     1.048497         10.33
     1.044279          7.52
     1.035236         10.13
     1.015495          8.53
##############################################################################
###                            Comments                                    ###
##############################################################################
###   Diffraction pattern calculated by Match!. 
###   I/Ic calculated by Match!. 
###   Space group has been derived from given symmetry operations. 
##############################################################################


