##############################################################################
###               Crystal structure data exported by Match!                ###
##############################################################################
###                           Data published by:                           ###
###                                                                        ###
###               COD (Crystallography Open Database)
##############################################################################
data_4124067
_citation_journal_full    'Journal of the American Chemical Society'
_citation_journal_volume  '126'
_citation_page_first  '9769'
_citation_page_last   '9775'
_citation_year  '2004'
_citation_title  'Chemical evaluation of hypothetical uninodal zeolites'
loop_
_publ_author_name
  'Foster M.D.'
  'Friedrichs O.D.'
  'Bell R.G.'
  'Paz F.A.A.'
  'Klinowski J.'
_chemical_formula_sum  'O2 Si'
_chemical_name_common  'Silica'
_symmetry_space_group_name_H-M 'P 4/n'
_space_group_IT_number 85
_space_group_crystal_system 'tetragonal'
loop_
_symmetry_equiv_pos_as_xyz
   'x, y, z'
   '-x+0.5, -y+0.5, -z'
   '-y+0.5, x+0.5, z'
   '-x, -y, z'
   'y+0.5, -x+0.5, z'
   'y, -x, -z'
   '-y, x, -z'
   'x+0.5, y+0.5, -z'
_cell_length_a       10.87553
_cell_length_b       10.87553
_cell_length_c        4.51093
_cell_angle_alpha    90.0000
_cell_angle_beta     90.0000
_cell_angle_gamma    90.0000
_cell_formula_units_Z 16
loop_
_atom_site_label
_atom_site_fract_x
_atom_site_fract_y
_atom_site_fract_z
_atom_site_occupancy
_atom_site_B_iso_or_equiv
o      0.624   0.118   0.578    1.00000    1.000
si      0.599   0.762   0.810    1.00000    1.000
o      0.830   0.215   0.846    1.00000    1.000
o      0.495   0.688   0.613    1.00000    1.000
o      0.546   0.815   0.122    1.00000    1.000
si      0.564   0.221   0.360    1.00000    1.000
_cell_measurement_wavelength    1.541874
_cell_measurement_radiation   'x-rays'
_exptl_crystal_density_diffrn    2.992000
loop_
_pd_peak_d_spacing
_pd_peak_intensity
     7.690161        620.29
     5.437765        630.71
     4.510930         85.80
     4.166724          1.20
     3.890929          3.47
     3.845081       1000.00
     3.471834         85.87
     3.439145        175.04
     3.307393        901.88
     2.926261        121.47
     2.825759         11.45
     2.734948        405.13
     2.718883         16.10
     2.563387          0.25
     2.507415        555.68
     2.431842         83.63
     2.328611          7.40
     2.277001         60.39
     2.255465         23.10
     2.228678        145.92
     2.208472          2.53
     2.164298          1.15
     2.140596        102.33
     2.132867          3.69
     2.083362         27.59
     2.046157         25.20
     1.959235        113.61
     1.945464          4.19
     1.928195        101.90
     1.922540          9.42
     1.915065          9.26
     1.886047         27.11
     1.865138        102.87
     1.843242         82.24
     1.812588         26.91
     1.806320          6.92
     1.768611         51.72
     1.735917         11.11
     1.723615         81.11
     1.719572         16.13
     1.714217        248.30
     1.693311          5.11
     1.681888          0.05
     1.662129          9.89
     1.653697         31.89
     1.606786          9.15
     1.589532         94.63
     1.565671          0.93
     1.549694         10.50
     1.538032         58.05
     1.525685         13.46
     1.508165          8.48
     1.504548        131.65
     1.503643          3.84
     1.489475          2.61
     1.475699          0.37
     1.468961         11.24
     1.463131         29.57
     1.455742          0.82
     1.449257         10.60
     1.437347          6.51
     1.436558          3.80
     1.430340         26.12
     1.428027         25.96
     1.418128         10.73
     1.412880         18.09
     1.401105         37.06
     1.400375          8.10
     1.388908          2.82
     1.377718         96.88
     1.367474          4.50
     1.361436          4.64
     1.359441          0.01
     1.356791         66.40
     1.345705          5.93
     1.330520         28.10
     1.318852          2.33
     1.316431         48.65
     1.315825          2.36
     1.306299         27.93
     1.301618          1.49
     1.296976          3.94
     1.292395         51.52
     1.281694         18.05
     1.279471         81.43
     1.278915         30.70
     1.270708         13.60
     1.265859         12.84
     1.264255         21.97
     1.253708          1.33
     1.245460          6.32
     1.236869         13.64
     1.232893          1.46
     1.228947          8.71
     1.225047         51.23
     1.217348          9.93
     1.215921         44.98
     1.206529         19.04
     1.206063         28.85
     1.201001         10.59
     1.184854          2.18
     1.184412          9.71
     1.174019         12.40
     1.170609         45.74
     1.167237         35.18
     1.164306          0.05
     1.160572          9.30
     1.157690         30.84
     1.157278          0.73
     1.150781          2.46
     1.146382          3.88
     1.141241         50.57
     1.138501          2.23
     1.131927          7.97
     1.127733         16.21
     1.125846          5.71
     1.121718         12.94
     1.116908          5.28
     1.115799          0.62
     1.114339          4.23
     1.111064          2.67
     1.108535          5.39
     1.104236          0.61
     1.102821          5.92
     1.102464          1.42
     1.098594         17.05
     1.098588         14.53
     1.087553          4.99
     1.082149         11.22
     1.080482         16.93
     1.076831          1.69
     1.075189          2.51
     1.072574          3.49
     1.071591          9.87
     1.070298          0.04
     1.067396          4.89
     1.066433          0.12
     1.065152          4.96
     1.064831         13.13
     1.060080          3.50
     1.059764          0.51
     1.057260          2.14
     1.056325         17.36
     1.056319          5.79
     1.052299         17.05
     1.045288         23.45
     1.041681          2.39
     1.037826          7.82
     1.036935          0.62
     1.035468         15.40
     1.032254          0.36
     1.028502          6.23
     1.026495          4.97
     1.023078          0.25
     1.021953          0.17
     1.021669          0.57
     1.014976          2.20
     1.009768          4.54
     1.008407          3.33
##############################################################################
###                            Comments                                    ###
##############################################################################
###   Diffraction pattern calculated by Match!. 
###   I/Ic calculated by Match!. 
###   Space group has been derived from given symmetry operations. 
##############################################################################


