##############################################################################
###               Crystal structure data exported by Match!                ###
##############################################################################

data_1520992
_citation_journal_full    'Journal of Solid State Chemistry'
_citation_journal_volume  '151'
_citation_page_first  '308'
_citation_page_last   '312'
_citation_year  '2000'
_citation_title  'Synthesis and crystal structures of Cd (O H) Cl and Cu (O H) Cl andrelationship to brucite type'
loop_
_publ_author_name
  'Cudennec Y.'
  'Riou A.'
  'Lecerf A.'
  'Gerault Y.'
_chemical_formula_sum  'Cl Cu H O'
_chemical_name_mineral  'Belloite'
_symmetry_space_group_name_H-M 'P 1 21/c 1'
_space_group_IT_number 14
_space_group_crystal_system 'monoclinic'
loop_
_symmetry_equiv_pos_as_xyz
   'x, y, z'
   '-x, y+0.5, -z+0.5'
   '-x, -y, -z'
   'x, -y+0.5, z+0.5'
_cell_length_a        6.29530
_cell_length_b        6.66490
_cell_length_c        5.55800
_cell_angle_alpha    90.0000
_cell_angle_beta    118.1380
_cell_angle_gamma    90.0000
_cell_formula_units_Z 4
loop_
_atom_site_label
_atom_site_fract_x
_atom_site_fract_y
_atom_site_fract_z
_atom_site_occupancy
_atom_site_B_iso_or_equiv
cu      0.032   0.118   0.286    1.00000    1.000
o      0.881   0.148   0.532    1.00000    1.000
cl      0.311   0.091   0.133    1.00000    1.000
h      0.674   0.128   0.528    1.00000    1.000
_cell_measurement_wavelength    1.541874
_cell_measurement_radiation   'x-rays'
_exptl_crystal_density_diffrn    3.747000
loop_
_pd_peak_d_spacing
_pd_peak_intensity
     5.551285       1000.00
     4.265496         73.24
     4.018516         11.54
     3.948465          0.85
     3.332450         18.57
     2.857171          0.78
     2.832869         31.95
     2.779267         49.15
     2.777376         28.78
     2.775643         57.80
     2.760171        262.21
     2.755773        601.93
     2.563686          0.89
     2.562323          3.43
     2.518534        279.13
     2.450562         66.75
     2.355938          1.62
     2.300019          0.64
     2.281321        117.91
     2.242838        284.80
     2.133534          1.20
     2.132748          0.78
     2.062591         44.71
     2.032702          1.34
     2.023456         13.39
     2.009258          5.36
     1.997725        132.97
     1.991293         32.10
     1.974232          3.39
     1.948926         24.14
     1.930574         62.39
     1.913611         20.14
     1.854347         37.69
     1.850428         67.93
     1.811595          0.48
     1.792143         20.78
     1.782985          1.95
     1.770581          9.61
     1.768522        127.14
     1.752408         36.90
     1.738642         24.50
     1.734886          5.20
     1.734463          0.58
     1.713430          1.48
     1.670495          6.46
     1.666225         76.06
     1.666062          8.69
     1.645930          1.66
     1.628153          3.54
     1.617758          5.33
     1.608475        142.49
     1.595888         53.78
     1.594814         42.08
     1.586734          0.03
     1.581921          0.18
     1.577552         12.29
     1.564821         11.82
     1.523397          2.68
     1.520947          6.74
     1.516219          1.04
     1.501816          7.01
     1.499614         31.47
     1.499453         41.49
     1.485477         14.17
     1.478445         27.66
     1.474114          0.71
     1.470767          2.79
     1.466913         16.47
     1.460301          2.21
     1.457238         21.98
     1.428822         13.01
     1.428585         17.17
     1.421832          1.59
     1.416434          1.00
     1.415518          2.49
     1.413673          2.12
     1.406180          3.12
     1.397257          9.96
     1.389633         49.75
     1.388688         22.15
     1.387821          4.29
     1.380086          0.17
     1.377887         18.25
     1.376561         32.31
     1.368921          3.92
     1.359492          2.42
     1.358678         15.35
     1.358148          2.19
     1.339505          0.52
     1.336465          9.88
     1.330799          0.10
     1.326958          8.14
     1.316155          0.75
     1.310380         18.22
     1.302033          8.54
     1.296137          0.62
     1.289970          2.46
     1.289738         25.46
     1.288622          0.79
     1.286256          0.27
     1.281843          1.94
     1.281161          0.33
     1.279571         36.26
     1.279328          2.51
     1.265145          6.84
     1.261389         18.47
     1.259267          5.66
     1.258782         12.45
     1.257707          0.02
     1.252356         19.58
     1.249721          2.02
     1.240429          0.22
     1.238216         20.89
     1.237374          1.15
     1.236914          0.02
     1.234039          4.24
     1.227837          0.35
     1.226376          1.99
     1.225281          0.70
     1.224834          1.42
     1.220288         12.32
     1.212253          0.26
     1.205230          0.02
     1.205086          6.00
     1.204661          3.83
     1.201739          0.11
     1.201599          0.32
     1.193478          0.85
     1.183677          1.31
     1.182698          0.08
     1.178142          1.02
     1.177969          0.11
     1.177572          0.18
     1.177565          0.39
     1.177037         18.18
     1.176873         11.44
     1.170958          1.45
     1.166533          0.30
     1.166437         16.01
     1.158771          0.04
     1.150135         19.88
     1.150010          0.51
     1.149640          0.02
     1.145216         16.72
     1.140661          7.92
     1.139908          5.59
     1.130573          0.15
     1.129387         14.90
     1.125414         10.99
     1.123328          3.01
     1.121419          1.48
     1.119526          0.53
     1.116278          1.01
     1.115554          3.00
     1.113513          0.87
     1.110817          2.58
     1.110257          0.06
     1.108808          0.02
     1.096914          1.24
     1.095518          3.56
     1.095199          0.21
     1.095166          3.79
     1.094144          1.22
     1.092913          5.17
     1.092351          0.13
     1.089224          0.00
     1.086956          0.00
     1.084752          6.44
     1.083341         12.32
     1.081573          0.60
     1.078786          1.19
     1.078508          1.60
     1.074635          7.58
     1.073022          0.11
     1.072920          3.63
     1.072620          0.76
     1.071305          3.02
     1.069629          1.12
     1.066767         12.52
     1.066374          3.32
     1.064703          2.54
     1.060515          3.27
     1.053335          0.14
     1.052864          1.87
     1.052735          2.99
     1.052426          1.75
     1.046833          7.36
     1.046025          6.53
     1.045372          2.72
     1.043981          1.89
     1.043300          6.42
     1.043039         10.29
     1.042539          6.83
     1.041224          7.29
     1.038490          0.14
     1.032812          0.12
     1.031385          0.30
     1.031296          0.15
     1.030748          2.51
     1.030665          7.37
     1.022396         16.55
     1.019002          4.75
     1.016351          2.87
     1.014727          0.15
     1.011728          1.67
     1.007606          7.11
     1.007297          5.18
     1.006766          0.49
##############################################################################
###                            Comments                                    ###
##############################################################################
###   Diffraction pattern calculated by Match!. 
###   I/Ic calculated by Match!. 
###   Space group has been derived from given symmetry operations. 
##############################################################################


