##############################################################################
###               Crystal structure data exported by Match!                ###
##############################################################################
###                           Data published by:                           ###
###                                                                        ###
###               COD (Crystallography Open Database)
##############################################################################
data_9000984
_citation_journal_full    'American Mineralogist'
_citation_journal_volume  '71'
_citation_page_first  '163'
_citation_page_last   '166'
_citation_year  '1986'
_citation_title  'Crystal structure refinement of huntite, CaMg3(CO3)4, with X-ray powder data'
loop_
_publ_author_name
  'Dollase W. A.'
  'Reeder R. J.'
_chemical_formula_sum  'C4 Ca Mg3 O12'
_chemical_name_mineral  'Huntite'
_symmetry_space_group_name_H-M 'R 32'
_space_group_IT_number 155
_space_group_crystal_system 'trigonal (hexagonal axes)'
loop_
_symmetry_equiv_pos_as_xyz
   'x, y, z'
   'x+0.66667, y+0.33333, z+0.33333'
   'x+0.33333, y+0.66667, z+0.66667'
   '-y, x-y, z'
   '-y+0.66667, x-y+0.33333, z+0.33333'
   '-y+0.33333, x-y+0.66667, z+0.66667'
   '-x+y, -x, z'
   '-x+y+0.66667, -x+0.33333, z+0.33333'
   '-x+y+0.33333, -x+0.66667, z+0.66667'
   'x-y, -y, -z'
   'x-y+0.66667, -y+0.33333, -z+0.33333'
   'x-y+0.33333, -y+0.66667, -z+0.66667'
   '-x, -x+y, -z'
   '-x+0.66667, -x+y+0.33333, -z+0.33333'
   '-x+0.33333, -x+y+0.66667, -z+0.66667'
   'y, x, -z'
   'y+0.66667, x+0.33333, -z+0.33333'
   'y+0.33333, x+0.66667, -z+0.66667'
_cell_length_a        9.50270
_cell_length_b        9.50270
_cell_length_c        7.82120
_cell_angle_alpha    90.0000
_cell_angle_beta     90.0000
_cell_angle_gamma   120.0000
loop_
_atom_site_label
_atom_site_fract_x
_atom_site_fract_y
_atom_site_fract_z
_atom_site_occupancy
_atom_site_B_iso_or_equiv
ca      0.000   0.000   0.000    1.00000    0.940
mg      0.544   0.000   0.000    1.00000    0.940
c      0.000   0.000   0.500    1.00000    0.940
c      0.454   0.000   0.500    1.00000    0.940
o      0.866   0.000   0.500    1.00000    0.940
o      0.590   0.000   0.500    1.00000    0.940
o      0.457   0.136   0.516    1.00000    0.940
_cell_measurement_wavelength    1.541874
_cell_measurement_radiation   'x-rays'
_exptl_crystal_density_diffrn    2.875000
loop_
_pd_peak_d_spacing
_pd_peak_intensity
     5.669299         13.98
     4.751350          9.63
     3.641565         19.94
     3.532099          8.04
     2.890303        187.86
     2.834650       1000.00
     2.743193         23.62
     2.607067         88.14
     2.434337         92.37
     2.375675        104.59
     2.285607         55.31
     2.191078         75.19
     1.989705         76.38
     1.971270        234.70
     1.902343          9.97
     1.889766         13.60
     1.835280         34.67
     1.820783         25.13
     1.795841         33.54
     1.766050        156.96
     1.755974        146.36
     1.700217         31.92
     1.655396          6.55
     1.610638          4.16
     1.583783         96.46
     1.536726          2.54
     1.525379         26.45
     1.517025          9.94
     1.484930         52.95
     1.478926         48.64
     1.462153          2.55
     1.452368         28.41
     1.445152         28.15
     1.417325         19.14
     1.397478         24.73
     1.382613         11.86
     1.371597         24.60
     1.358185          8.81
     1.353586         15.91
     1.333136          9.39
     1.317787         29.64
     1.303533         41.57
     1.290307          5.86
     1.278579         11.87
     1.259187         12.70
     1.257082          1.28
     1.245208         16.64
     1.239148         22.25
     1.217169         12.58
     1.213855          0.23
     1.204529          5.13
     1.194971          3.60
     1.187837          1.98
     1.179094          4.07
     1.177366          2.30
     1.176082          6.80
     1.162593         18.71
     1.142803         13.66
     1.133860          3.78
     1.129279          2.43
     1.125876         37.22
     1.112568          2.51
     1.107157          0.10
     1.102890          7.02
     1.095539          7.18
     1.090034          0.99
     1.080929          6.89
     1.078270          2.30
     1.074328          8.79
     1.056164          1.25
     1.054922          5.44
     1.051532          1.46
     1.044256          9.84
     1.036830          2.91
     1.023284          0.97
     1.019913          0.03
     1.017405          2.20
     1.007552         23.79
     1.006473         21.67
##############################################################################
###                            Comments                                    ###
##############################################################################
###   Diffraction pattern calculated by Match!. 
###   I/Ic calculated by Match!. 
##############################################################################


