##############################################################################
###               Crystal structure data exported by Match!                ###
##############################################################################
###                           Data published by:                           ###
###                                                                        ###
###               COD (Crystallography Open Database)
##############################################################################
data_9014203
_citation_journal_full    'American Mineralogist'
_citation_journal_volume  '97'
_citation_page_first  '1764'
_citation_page_last   '1770'
_citation_year  '2012'
_citation_title  'High-pressure structural studies of eskolaite by means of single-crystal X-ray diffractionNote: P = 29.6 GPa'
loop_
_publ_author_name
  'Kantor A.'
  'Kantor I.'
  'Merlini M.'
  'Glazyrin K.'
  'Prescher C.'
  'Hanfland M.'
  'Dubrovinsky L.'
_chemical_formula_sum  'Cr2 O3'
_chemical_name_mineral  'Eskolaite'
_symmetry_space_group_name_H-M 'R -3 c'
_space_group_IT_number 167
_space_group_crystal_system 'trigonal (hexagonal axes)'
loop_
_symmetry_equiv_pos_as_xyz
   'x, y, z'
   'x+0.66667, y+0.33333, z+0.33333'
   'x+0.33333, y+0.66667, z+0.66667'
   '-y, x-y, z'
   '-y+0.66667, x-y+0.33333, z+0.33333'
   '-y+0.33333, x-y+0.66667, z+0.66667'
   '-x+y, -x, z'
   '-x+y+0.66667, -x+0.33333, z+0.33333'
   '-x+y+0.33333, -x+0.66667, z+0.66667'
   'x-y, -y, -z+0.5'
   'x-y+0.66667, -y+0.33333, -z+0.83333'
   'x-y+0.33333, -y+0.66667, -z+0.16667'
   '-x, -x+y, -z+0.5'
   '-x+0.66667, -x+y+0.33333, -z+0.83333'
   '-x+0.33333, -x+y+0.66667, -z+0.16667'
   'y, x, -z+0.5'
   'y+0.66667, x+0.33333, -z+0.83333'
   'y+0.33333, x+0.66667, -z+0.16667'
   '-x, -y, -z'
   '-x+0.66667, -y+0.33333, -z+0.33333'
   '-x+0.33333, -y+0.66667, -z+0.66667'
   'y, -x+y, -z'
   'y+0.66667, -x+y+0.33333, -z+0.33333'
   'y+0.33333, -x+y+0.66667, -z+0.66667'
   'x-y, x, -z'
   'x-y+0.66667, x+0.33333, -z+0.33333'
   'x-y+0.33333, x+0.66667, -z+0.66667'
   '-x+y, y, z+0.5'
   '-x+y+0.66667, y+0.33333, z+0.83333'
   '-x+y+0.33333, y+0.66667, z+0.16667'
   'x, x-y, z+0.5'
   'x+0.66667, x-y+0.33333, z+0.83333'
   'x+0.33333, x-y+0.66667, z+0.16667'
   '-y, -x, z+0.5'
   '-y+0.66667, -x+0.33333, z+0.83333'
   '-y+0.33333, -x+0.66667, z+0.16667'
_cell_length_a        4.78500
_cell_length_b        4.78500
_cell_length_c       13.16200
_cell_angle_alpha    90.0000
_cell_angle_beta     90.0000
_cell_angle_gamma   120.0000
_cell_formula_units_Z 6
loop_
_atom_site_label
_atom_site_fract_x
_atom_site_fract_y
_atom_site_fract_z
_atom_site_occupancy
_atom_site_B_iso_or_equiv
cr      0.000   0.000   0.347    1.00000    0.671
o      0.313   0.000   0.250    1.00000    0.947
_cell_measurement_wavelength    1.541874
_cell_measurement_radiation   'x-rays'
_exptl_crystal_density_diffrn    5.802000
loop_
_pd_peak_d_spacing
_pd_peak_intensity
     3.506649        696.42
     2.576908       1000.00
     2.392500        922.75
     2.193667         72.88
     2.100484        271.47
     1.976328         67.91
     1.753325        336.56
     1.616888        855.55
     1.555286          3.66
     1.529139          8.81
     1.523700         63.31
     1.414221        259.08
     1.381310        356.06
     1.346020          1.77
     1.288454          1.30
     1.254444        131.89
     1.247793         23.12
     1.203437          1.01
     1.196250         75.68
     1.168883         60.20
     1.154118         14.29
     1.144963          0.48
     1.134410          2.75
     1.132184         29.44
     1.110991         71.56
     1.096833         20.07
     1.085037         74.13
     1.053304          0.34
     1.050242        147.39
     1.023380         13.37
     1.007649        115.02
##############################################################################
###                            Comments                                    ###
##############################################################################
###   Synthetic
###   Diffraction pattern calculated by Match!. 
###   I/Ic calculated by Match!. 
##############################################################################


