##############################################################################
###               Crystal structure data exported by Match!                ###
##############################################################################
###                           Data published by:                           ###
###                                                                        ###
###               COD (Crystallography Open Database)
##############################################################################
data_9004091
_citation_journal_full    'The Canadian Mineralogist'
_citation_journal_volume  '13'
_citation_page_first  '181'
_citation_page_last   '187'
_citation_year  '1975'
_citation_title  'Anhydrous sulphates. I: Refinement of the crystal structure of celestitewith an appendix on the structure of thenardite'
loop_
_publ_author_name
  'Hawthorne F. C.'
  'Ferguson R. B.'
_chemical_formula_sum  'O4 S Sr'
_chemical_name_mineral  'Celestine'
_symmetry_space_group_name_H-M 'P n m a'
_space_group_IT_number 62
_space_group_crystal_system 'orthorhombic'
loop_
_symmetry_equiv_pos_as_xyz
   'x, y, z'
   '-x+0.5, -y, z+0.5'
   'x+0.5, -y+0.5, -z+0.5'
   '-x, y+0.5, -z'
   '-x, -y, -z'
   'x+0.5, y, -z+0.5'
   '-x+0.5, y+0.5, z+0.5'
   'x, -y+0.5, z'
_cell_length_a        8.36000
_cell_length_b        5.35200
_cell_length_c        6.85800
_cell_angle_alpha    90.0000
_cell_angle_beta     90.0000
_cell_angle_gamma    90.0000
loop_
_atom_site_label
_atom_site_fract_x
_atom_site_fract_y
_atom_site_fract_z
_atom_site_occupancy
_atom_site_B_iso_or_equiv
sr      0.184   0.250   0.158    1.00000    0.850
s      0.438   0.750   0.185    1.00000    0.529
o      0.597   0.750   0.094    1.00000    1.211
o      0.310   0.750   0.041    1.00000    1.259
o      0.422   0.975   0.310    1.00000    0.998
_cell_measurement_wavelength    1.541874
_cell_measurement_radiation   'x-rays'
_exptl_crystal_density_diffrn    3.976000
loop_
_pd_peak_d_spacing
_pd_peak_intensity
     5.302199          0.61
     4.219241         95.91
     4.180000         46.74
     3.766705        341.10
     3.569263         15.40
     3.429000        260.42
     3.294315        939.45
     3.172502        529.83
     2.969483       1000.00
     2.729065        637.01
     2.676000        499.76
     2.651100         12.51
     2.581674         59.25
     2.388983         35.32
     2.375620        159.10
     2.325279          3.51
     2.253722        138.06
     2.205048         41.31
     2.162584         62.34
     2.141073        254.86
     2.109620          9.61
     2.102261          0.07
     2.090000         13.55
     2.045498        476.55
     2.038787        383.28
     2.005658         33.50
     2.005083        324.83
     1.999222        383.78
     1.946823        139.72
     1.883352          7.04
     1.878111          0.11
     1.872823          0.04
     1.857971         53.65
     1.784631          0.99
     1.767400        174.25
     1.726539         33.61
     1.714500         30.24
     1.701743          4.56
     1.692990          0.54
     1.690856         29.16
     1.681995          0.09
     1.679543         41.83
     1.678258         82.01
     1.647158          0.61
     1.640809         71.78
     1.624419         18.57
     1.604913          5.34
     1.602489         39.12
     1.601609        129.23
     1.595771         99.70
     1.586251         11.55
     1.555002        117.55
     1.554399         18.19
     1.542499          6.13
     1.520858         20.43
     1.502859          9.45
     1.484741          0.89
     1.482169          0.92
     1.480086         17.99
     1.474774        192.51
     1.467672          4.73
     1.460255          0.15
     1.446897         57.18
     1.443619         34.89
     1.422565         95.95
     1.408760         22.09
     1.406414          0.00
     1.393333          1.52
     1.388601         39.30
     1.386924         74.83
     1.376171         76.23
     1.365437          1.33
     1.364533         12.32
     1.356894         47.62
     1.353504          0.81
     1.349547         41.82
     1.348388         54.28
     1.338000         81.88
     1.336382          0.14
     1.332984          0.08
     1.331090          0.41
     1.328662         41.15
     1.325550          0.73
     1.323057         88.09
     1.312193          0.04
     1.310355          1.08
     1.308586         55.69
     1.303232         14.93
     1.297331          0.04
     1.290837          0.22
     1.286673         33.92
     1.281827         18.94
     1.274308          4.80
     1.266233         57.71
     1.261702          0.67
     1.255568         43.80
     1.254855          8.01
     1.252863          5.18
     1.246469         15.63
     1.235846         19.93
     1.232841         52.67
     1.230611          4.14
     1.222878         27.49
     1.216255          4.42
     1.207799          6.67
     1.204984        105.57
     1.201101          9.27
     1.199316         12.88
     1.197026          0.56
     1.194491          0.15
     1.189754          0.22
     1.187937         11.75
     1.187810          1.08
     1.185423          9.57
     1.176578          0.01
     1.171672         29.90
     1.168164         16.58
     1.166825          0.48
     1.162640          4.72
     1.161403          0.29
     1.149381         19.13
     1.149137          4.27
     1.146714         48.89
     1.143885          3.21
     1.143000         22.72
     1.137830          5.08
     1.132464          0.61
     1.129983          9.92
     1.127837         37.12
     1.126861          1.48
     1.121266          0.42
     1.118054          7.79
     1.113054          5.35
     1.111950         81.36
     1.107933          0.27
     1.103599         13.16
     1.102524          3.72
     1.098105         24.23
     1.092687          1.45
     1.087371         21.60
     1.087148          0.14
     1.084293         32.89
     1.081292          4.10
     1.079849         48.42
     1.078289          0.06
     1.077068          1.44
     1.076284         36.00
     1.070536          0.15
     1.066782         56.19
     1.063993         17.66
     1.060440          0.03
     1.059877          7.80
     1.058533          0.45
     1.057595          1.31
     1.057501          0.41
     1.054810         10.79
     1.054017         61.37
     1.052348         29.45
     1.051131         21.56
     1.049233          7.72
     1.046513         20.37
     1.045789          4.45
     1.045000         27.75
     1.042919          0.00
     1.040217          7.16
     1.039301         49.91
     1.038418         30.55
     1.037443          3.75
     1.036941         25.76
     1.033075          1.09
     1.032767          9.23
     1.025632          1.23
     1.025287         32.95
     1.022749          5.68
     1.019394         12.04
     1.014351          7.53
     1.014227         15.63
     1.012984         13.50
     1.010733          1.34
##############################################################################
###                            Comments                                    ###
##############################################################################
###   Diffraction pattern calculated by Match!. 
###   I/Ic calculated by Match!. 
###   Space group has been derived from given symmetry operations. 
##############################################################################


