##############################################################################
###               Crystal structure data exported by Match!                ###
##############################################################################
###                           Data published by:                           ###
###                                                                        ###
###               COD (Crystallography Open Database)
##############################################################################
data_9012077
_citation_journal_full    'Bulletin de la Societe Francaise de Mineralogie et de Cristallographie'
_citation_journal_volume  '89'
_citation_page_first  '213'
_citation_page_last   '215'
_citation_year  '1966'
_citation_title  'Structure cristalline de CoAs2 Note: coordinates transformed from B2_1/d to P2_1/c'
loop_
_publ_author_name
  'Darmon R.'
  'Wintenberger M.'
_chemical_formula_sum  'As2 Co'
_chemical_name_mineral  'Clinosafflorite'
_symmetry_space_group_name_H-M 'P 1 21/c 1'
_space_group_IT_number 14
_space_group_crystal_system 'monoclinic'
loop_
_symmetry_equiv_pos_as_xyz
   'x, y, z'
   '-x, y+0.5, -z+0.5'
   '-x, -y, -z'
   'x, -y+0.5, z+0.5'
_cell_length_a        5.97200
_cell_length_b        5.86000
_cell_length_c        5.91700
_cell_angle_alpha    90.0000
_cell_angle_beta    116.6850
_cell_angle_gamma    90.0000
loop_
_atom_site_label
_atom_site_fract_x
_atom_site_fract_y
_atom_site_fract_z
_atom_site_occupancy
_atom_site_B_iso_or_equiv
co      0.273   0.011   -0.717    1.00000    1.000
as      0.344   -0.631   -0.824    1.00000    1.000
as      0.155   -0.365   -0.637    1.00000    1.000
_cell_measurement_wavelength    1.541874
_cell_measurement_radiation   'x-rays'
_exptl_crystal_density_diffrn    7.495000
loop_
_pd_peak_d_spacing
_pd_peak_intensity
     5.335916         13.24
     3.945361          1.96
     3.925371          1.61
     3.829693         83.76
     2.954534          3.29
     2.930000         81.53
     2.753867        126.33
     2.667958        400.48
     2.656438          0.05
     2.643387        372.05
     2.638183         57.48
     2.568278          6.36
     2.562740          0.28
     2.535548       1000.00
     2.529856         49.76
     2.428145        505.74
     2.409578        435.77
     2.322652        227.50
     2.135782          0.11
     2.089360          3.17
     2.080443          4.78
     2.033155         50.20
     1.972680         61.79
     1.962685         56.62
     1.931024         16.22
     1.927839          7.00
     1.920827          6.36
     1.914847        103.73
     1.871589        331.00
     1.854620        270.69
     1.834290          4.74
     1.834014          2.03
     1.832269         12.55
     1.823980         56.31
     1.822254        191.93
     1.778639          5.23
     1.701968          0.35
     1.687599         24.59
     1.674996          3.68
     1.670391          8.79
     1.655603        387.69
     1.637706        127.48
     1.633696          0.25
     1.629423         12.51
     1.626301        125.76
     1.620777        244.61
     1.612353          0.05
     1.605522          0.07
     1.576070         78.98
     1.570959         58.51
     1.559917        186.01
     1.546103         35.67
     1.520425          7.15
     1.510155         19.39
     1.507422          0.12
     1.490122         25.28
     1.477267         22.00
     1.465000         34.06
     1.461706         22.32
     1.448643          0.65
     1.444162         13.78
     1.443049          4.28
     1.440731          0.11
     1.432451         12.08
     1.414923          0.35
     1.412722          0.39
     1.411798          0.87
     1.411347          9.22
     1.408589          4.47
     1.407201          4.99
     1.405132          1.05
     1.401189          1.43
     1.388823          6.64
     1.381847          6.22
     1.376934          5.08
     1.373260          0.83
     1.372295          2.96
     1.369032          3.75
     1.366400         10.04
     1.333979         10.37
     1.331702         99.07
     1.328219         25.65
     1.326076          0.12
     1.325548         97.89
     1.321694          8.17
     1.319091         18.97
     1.315120          0.57
     1.314739          2.25
     1.312508          2.79
     1.308457          3.77
     1.305366          0.08
     1.300703         31.98
     1.294558          8.62
     1.289306         21.78
     1.284139          0.05
     1.281370          0.16
     1.276564         11.32
     1.271668         13.77
     1.267774        109.64
     1.266973          3.62
     1.264928          7.12
     1.240112         10.53
     1.236450         40.46
     1.218927          0.36
     1.214072         12.64
     1.213243          0.68
     1.210324          0.83
     1.204789          8.61
     1.192863          2.58
     1.190241          0.10
     1.188585          0.00
     1.187214         27.66
     1.184744          3.46
     1.182847         23.75
     1.178252          4.02
     1.176637          1.89
     1.172386          0.41
     1.168892          1.33
     1.168440          4.13
     1.167128          4.25
     1.166480          1.79
     1.164529          1.77
     1.161326          8.56
     1.160670          0.57
     1.158044         15.45
     1.153474          9.19
     1.151473          5.08
     1.145504          6.50
     1.144713          1.54
     1.144221          0.61
     1.144087          1.89
     1.144034          8.94
     1.142033          4.98
     1.141770         20.51
     1.140664          2.31
     1.139598          1.82
     1.130803          1.25
     1.129558         57.65
     1.126559          1.71
     1.118381         35.30
     1.108563          3.13
     1.106011          0.73
     1.104812          0.35
     1.101602         12.62
     1.097139         41.56
     1.095639         16.28
     1.094653          6.45
     1.091766         51.53
     1.090692          0.52
     1.090069          1.21
     1.089418          0.53
     1.089244          4.48
     1.085449          0.27
     1.085001         35.73
     1.083752          4.75
     1.073031         32.92
     1.071422         10.02
     1.071414         38.11
     1.067891         26.20
     1.067183          1.82
     1.063428         19.50
     1.061869          3.95
     1.061746         15.90
     1.049915          0.04
     1.046943          0.00
     1.046372          3.07
     1.045066         14.74
     1.044680         77.15
     1.043379          0.63
     1.040552         24.67
     1.040221         62.03
     1.036834          0.04
     1.033559         13.98
     1.033450          1.07
     1.028063         22.93
     1.023946         10.09
     1.020738          7.45
     1.018043          0.27
     1.016577          6.33
     1.016486          0.18
     1.016412          2.82
     1.015380          0.01
     1.014083          7.14
     1.010853          0.06
     1.007901          0.03
     1.007809          6.65
     1.006474          2.07
##############################################################################
###                            Comments                                    ###
##############################################################################
###   Diffraction pattern calculated by Match!. 
###   I/Ic calculated by Match!. 
##############################################################################


