##############################################################################
###               Crystal structure data exported by Match!                ###
##############################################################################
###                           Data published by:                           ###
###                                                                        ###
###               COD (Crystallography Open Database)
##############################################################################
data_9005031
_citation_journal_full    'European Journal of Mineralogy'
_citation_journal_volume  '2'
_citation_page_first  '63'
_citation_page_last   '77'
_citation_year  '1990'
_citation_title  'An X-ray study of the temperature dependence of the quartz structureSample: at T = 972 K'
loop_
_publ_author_name
  'Kihara K.'
_chemical_formula_sum  'O2 Si'
_chemical_name_mineral  'Quartz'
_symmetry_space_group_name_H-M 'P 62 2 2'
_space_group_IT_number 180
_space_group_crystal_system 'hexagonal'
loop_
_symmetry_equiv_pos_as_xyz
   'x, y, z'
   'x-y, x, z+0.33333'
   '-y, x-y, z+0.66667'
   '-x, -y, z'
   '-x+y, -x, z+0.33333'
   'y, -x+y, z+0.66667'
   'x-y, -y, -z'
   '-x, -x+y, -z+0.33333'
   'y, x, -z+0.66667'
   '-y, -x, -z+0.66667'
   '-x+y, y, -z'
   'x, x-y, -z+0.33333'
_cell_length_a        4.99770
_cell_length_b        4.99770
_cell_length_c        5.45640
_cell_angle_alpha    90.0000
_cell_angle_beta     90.0000
_cell_angle_gamma   120.0000
loop_
_atom_site_label
_atom_site_fract_x
_atom_site_fract_y
_atom_site_fract_z
_atom_site_occupancy
_atom_site_B_iso_or_equiv
si      0.500   0.000   0.000    1.00000    1.786
o      0.416   0.208   0.167    1.00000    4.441
_cell_measurement_wavelength    1.541874
_cell_measurement_radiation   'x-rays'
_cell_measurement_temperature    972.000000
_exptl_crystal_density_diffrn    2.536000
loop_
_pd_peak_d_spacing
_pd_peak_intensity
     4.328135        182.70
     3.390889       1000.00
     2.498850         36.98
     2.307952         20.46
     2.271932          2.19
     2.164068         35.24
     2.011629         26.19
     1.842710        146.10
     1.818800          0.38
     1.695444         10.25
     1.676765          4.50
     1.635881          0.79
     1.566972         58.76
     1.470522          2.51
     1.442712          8.56
     1.402992         31.23
     1.394780          9.38
     1.392352         56.27
     1.301013          5.36
     1.275366         15.65
     1.249425         15.67
     1.217904          0.59
     1.216286         15.95
     1.200409          4.32
     1.197318         17.05
     1.172373         24.86
     1.153976          0.76
     1.135966          0.36
     1.130296          0.19
     1.098752          9.15
     1.082034          7.02
     1.061366          0.23
     1.058163          7.71
     1.047658          9.38
     1.029843          7.65
##############################################################################
###                            Comments                                    ###
##############################################################################
###   Diffraction pattern calculated by Match!. 
###   I/Ic calculated by Match!. 
###   Space group has been derived from given symmetry operations. 
##############################################################################


