##############################################################################
###               Crystal structure data exported by Match!                ###
##############################################################################
###                           Data published by:                           ###
###                                                                        ###
###               COD (Crystallography Open Database)
##############################################################################
data_1536136
_citation_journal_full    'Journal of Solid State Chemistry'
_citation_journal_volume  '52'
_citation_page_first  '320'
_citation_page_last   '326'
_citation_year  '1984'
_citation_title  'Ambient pressure synthesis, properties, and structure refinements of V P4 and Co P2'
loop_
_publ_author_name
  'Jeitschko W.'
  'Floerke U.'
  'Scholz U.D.'
_chemical_formula_sum  'Co P2'
_chemical_name_common  'Co P2'
_symmetry_space_group_name_H-M 'P 1 21/c 1'
_space_group_IT_number 14
_space_group_crystal_system 'monoclinic'
loop_
_symmetry_equiv_pos_as_xyz
   'x, y, z'
   '-x, y+0.5, -z+0.5'
   '-x, -y, -z'
   'x, -y+0.5, z+0.5'
_cell_length_a        5.55100
_cell_length_b        5.54900
_cell_length_c        5.61400
_cell_angle_alpha    90.0000
_cell_angle_beta    114.7100
_cell_angle_gamma    90.0000
_cell_formula_units_Z 4
loop_
_atom_site_label
_atom_site_fract_x
_atom_site_fract_y
_atom_site_fract_z
_atom_site_occupancy
_atom_site_B_iso_or_equiv
p      0.338   0.372   0.182    1.00000    1.000
co      0.271   0.001   0.286    1.00000    1.000
p      0.159   0.627   0.365    1.00000    1.000
_cell_measurement_wavelength    1.541874
_cell_measurement_radiation   'x-rays'
_exptl_crystal_density_diffrn    5.110000
loop_
_pd_peak_d_spacing
_pd_peak_intensity
     5.042724         36.27
     3.754943         41.14
     3.731923          0.41
     3.586551       1000.00
     2.794025         37.91
     2.774500        470.94
     2.646670         57.14
     2.549978        639.60
     2.521362        719.89
     2.495530         33.17
     2.475318          0.41
     2.437185          2.61
     2.430857         10.68
     2.389296        484.49
     2.350147         43.79
     2.317036        209.83
     2.295505        221.39
     2.164060        115.54
     2.040444          0.10
     1.968735         34.43
     1.968243         99.32
     1.958765          6.40
     1.877471        219.87
     1.865962        248.48
     1.855007          3.59
     1.846660         40.97
     1.793275        234.32
     1.788390          6.20
     1.766933        350.30
     1.747880        425.60
     1.738836         19.73
     1.736534          0.08
     1.721191        336.47
     1.713096         93.57
     1.702170          0.96
     1.680908         13.62
     1.625418         71.67
     1.608719          0.09
     1.605323         45.76
     1.599904          0.97
     1.576082        387.62
     1.547217         60.01
     1.542324          6.23
     1.537517          0.44
     1.534376         70.00
     1.510683          1.47
     1.507814        285.32
     1.505633        171.40
     1.503175          0.56
     1.497249         37.84
     1.491392         41.98
     1.453488         23.49
     1.453093          0.01
     1.449529         16.58
     1.437648         13.63
     1.397013          0.01
     1.392986         16.49
     1.383593         21.56
     1.382873          0.27
     1.380856          1.00
     1.364269          4.35
     1.354739          2.15
     1.347883          1.04
     1.344671         22.42
     1.341832          2.22
     1.339990          0.97
     1.338611          0.16
     1.337560          1.36
     1.330511          0.16
     1.324428          2.05
     1.323335         36.37
     1.314222          0.33
     1.312934         11.42
     1.305060         17.12
     1.290389          0.42
     1.285700          0.55
     1.278844          5.68
     1.277456         43.66
     1.274989          0.09
     1.272468          8.06
     1.270200         46.81
     1.260681          1.35
     1.259975          0.01
     1.251648         17.48
     1.247765         36.36
     1.243974          0.09
     1.242610         10.79
     1.242526          6.65
     1.240008          0.08
     1.237659         54.01
     1.236213         26.09
     1.229353         16.72
     1.223962          0.09
     1.218592         11.80
     1.215429         12.96
     1.195517          3.98
     1.194648        116.90
     1.192872         21.31
     1.187715         10.57
     1.182601          5.79
     1.175074         13.03
     1.169725         12.61
     1.167684          0.00
     1.166229          0.36
     1.158518         15.76
     1.149581         14.07
     1.147753         29.62
     1.135801         34.67
     1.133908          3.27
     1.131993          0.05
     1.130692         47.54
     1.129011         10.36
     1.114779          1.14
     1.112863          0.03
     1.109859          3.21
     1.108056          0.09
     1.107555          1.03
     1.106518          0.61
     1.106344          5.68
     1.100381         38.64
     1.099034          0.02
     1.098777          1.79
     1.097707          5.90
     1.097536         15.29
     1.096133          4.53
     1.095878         17.18
     1.088304          1.00
     1.084421          3.09
     1.083862          0.02
     1.082030         26.72
     1.080101         49.75
     1.078356         20.27
     1.074801          0.07
     1.071840         33.74
     1.071332          2.42
     1.069931          4.21
     1.069658         36.15
     1.067575          0.21
     1.059102         74.60
     1.049758          5.14
     1.045745         20.45
     1.041728          9.00
     1.041330         71.99
     1.040705          8.63
     1.038629          0.01
     1.038298          0.47
     1.031415          1.07
     1.030471          1.04
     1.029973          0.03
     1.027001          3.16
     1.022013         15.01
     1.020222          2.09
     1.017602         13.50
     1.016461          1.20
     1.015757         13.41
     1.014600         22.45
     1.013943          3.19
     1.009851          4.25
     1.008545          5.20
##############################################################################
###                            Comments                                    ###
##############################################################################
###   Diffraction pattern calculated by Match!. 
###   I/Ic calculated by Match!. 
##############################################################################


