##############################################################################
###               Crystal structure data exported by Match!                ###
##############################################################################
###                           Data published by:                           ###
###                                                                        ###
###               COD (Crystallography Open Database)
##############################################################################
data_2214531
_citation_journal_full    'Acta Crystallographica, Section E'
_citation_journal_volume  '63(8)'
_citation_page_first  'm172'
_citation_page_last   'm172'
_citation_year  '2007'
_citation_title  'The high-temperature modification of magnesium sulfate (\b-MgSO~4~) fromsingle-crystal data'
loop_
_publ_author_name
  'Weil Matthias'
_chemical_formula_sum  'Mg O4 S'
_chemical_name_common  'Magnesium sulfate'
_symmetry_space_group_name_H-M 'P n m a'
_space_group_IT_number 62
_space_group_crystal_system 'orthorhombic'
loop_
_symmetry_equiv_pos_as_xyz
   'x, y, z'
   '-x+0.5, -y, z+0.5'
   'x+0.5, -y+0.5, -z+0.5'
   '-x, y+0.5, -z'
   '-x, -y, -z'
   'x+0.5, y, -z+0.5'
   '-x+0.5, y+0.5, z+0.5'
   'x, -y+0.5, z'
_cell_length_a        8.57870
_cell_length_b        6.69530
_cell_length_c        4.74380
_cell_angle_alpha    90.0000
_cell_angle_beta     90.0000
_cell_angle_gamma    90.0000
_cell_formula_units_Z 4
loop_
_atom_site_label
_atom_site_fract_x
_atom_site_fract_y
_atom_site_fract_z
_atom_site_occupancy
_atom_site_B_iso_or_equiv
mg      0.000   0.000   0.000    1.00000    0.825
s      0.320   0.250   0.026    1.00000    0.431
o      0.374   0.069   0.165    1.00000    0.798
o      0.146   0.250   0.039    1.00000    0.650
o      0.375   0.250   0.730    1.00000    0.758
_cell_measurement_wavelength    1.541874
_cell_measurement_radiation   'x-rays'
_cell_measurement_temperature    293.000000
_exptl_crystal_density_diffrn    2.934000
_exptl_crystal_colour            'colourless'
loop_
_pd_peak_d_spacing
_pd_peak_intensity
     4.289350          0.35
     4.151369         35.50
     3.870704          7.35
     3.611729        408.42
     3.528193       1000.00
     3.347650         41.54
     3.181594         27.12
     2.873641          5.42
     2.639046        246.48
     2.605924         77.54
     2.449027        211.48
     2.371900         54.05
     2.306197        142.26
     2.299990          0.25
     2.286127         89.71
     2.163484         12.15
     2.144675         42.97
     2.075684          0.31
     2.042447         24.16
     2.019444         41.15
     1.982593          8.32
     1.979814          0.58
     1.976572         22.23
     1.965714         61.40
     1.954236          0.52
     1.935352          6.09
     1.887905          2.01
     1.875958          0.00
     1.827079          0.96
     1.825616         12.28
     1.805865         45.39
     1.764096        119.81
     1.761313          9.63
     1.687712          0.42
     1.673825         70.17
     1.649569          7.07
     1.613452          0.93
     1.602776          2.60
     1.596970          6.39
     1.590797         22.06
     1.568550         41.46
     1.559306          0.03
     1.555070         19.66
     1.552390         16.39
     1.547710         17.59
     1.546387          9.04
     1.538929         21.34
     1.519917          3.93
     1.514749         24.94
     1.483661          3.51
     1.481332          6.73
     1.470242         25.09
     1.453448         87.43
     1.448522          3.52
     1.436821         32.22
     1.429783         23.91
     1.413065          1.74
     1.410333         48.01
     1.398256          0.00
     1.390163          9.82
     1.383790          8.74
     1.381900         36.09
     1.368955          0.20
     1.367585         31.91
     1.361132          0.00
     1.356415          4.26
     1.355148          1.05
     1.350532          3.64
     1.341207          0.96
     1.319523          0.01
     1.314877          1.40
     1.307541          7.86
     1.302962          0.07
     1.295396         10.11
     1.290235          9.43
     1.288702          1.45
     1.283865          0.29
     1.278840          1.36
     1.278221         16.00
     1.275885         43.06
     1.274403         30.66
     1.272730          0.90
     1.271259          0.21
     1.267104         13.29
     1.250340          6.52
     1.235548          1.94
     1.234203          0.26
     1.233751          0.01
     1.224513         23.21
     1.204534         17.90
     1.203910          7.32
     1.189654          1.49
     1.186571          5.03
     1.185950          8.89
     1.179969          4.85
     1.176064          2.43
     1.174903          0.05
     1.174777          0.40
     1.168365         11.73
     1.166917          0.46
     1.162762          0.99
     1.161640          0.41
     1.157100          0.49
     1.155443          2.38
     1.153099          3.44
     1.149995          1.53
     1.145614          5.25
     1.143064          0.14
     1.139272          1.18
     1.135845          3.78
     1.126761          3.72
     1.125230          0.25
     1.118395          0.22
     1.117875          3.57
     1.115883          6.49
     1.110279          2.20
     1.108503          9.01
     1.105586          3.56
     1.104622          0.62
     1.098392         11.52
     1.095475          1.52
     1.088783          0.05
     1.087151         16.76
     1.081742         15.54
     1.081099          0.04
     1.079937         10.03
     1.079747          3.14
     1.077631         11.69
     1.074666          0.04
     1.073538          4.30
     1.072338          1.91
     1.069425          1.12
     1.066516         21.06
     1.060531          0.02
     1.059680          2.78
     1.058843          0.06
     1.052996          0.38
     1.047696         15.40
     1.047472          3.10
     1.045947          0.00
     1.041147          0.07
     1.039551          1.14
     1.037842          0.77
     1.035397          2.61
     1.033413          0.37
     1.031197         15.09
     1.030415         10.38
     1.025594          4.25
     1.024439          5.54
     1.021881          4.42
     1.021224         10.43
     1.017383          9.54
     1.015442          0.29
     1.014707          4.47
     1.013118          1.10
     1.011011          0.07
     1.009722          0.00
##############################################################################
###                            Comments                                    ###
##############################################################################
###   Diffraction pattern calculated by Match!. 
###   I/Ic calculated by Match!. 
###   Space group has been derived from given symmetry operations. 
##############################################################################


