##############################################################################
###               Crystal structure data exported by Match!                ###
##############################################################################
###                           Data published by:                           ###
###                                                                        ###
###               COD (Crystallography Open Database)
##############################################################################
data_9013568
_citation_journal_full    'American Mineralogist'
_citation_journal_volume  '94'
_citation_page_first  '451'
_citation_page_last   '460'
_citation_year  '2009'
_citation_title  'Molecular conformation and anion configuration variations for As4S4 andAs4Se4 in an anion-substituted solid solution Locality: synthetic Note:S1Se0-4'
loop_
_publ_author_name
  'Kyono A.'
_chemical_formula_sum  'As S'
_chemical_name_mineral  'Realgar'
_symmetry_space_group_name_H-M 'P 1 21/n 1'
_space_group_IT_number 14
_space_group_crystal_system 'monoclinic'
loop_
_symmetry_equiv_pos_as_xyz
   'x, y, z'
   '-x+0.5, y+0.5, -z+0.5'
   '-x, -y, -z'
   'x+0.5, -y+0.5, z+0.5'
_cell_length_a        9.33890
_cell_length_b       13.58710
_cell_length_c        6.59810
_cell_angle_alpha    90.0000
_cell_angle_beta    106.5000
_cell_angle_gamma    90.0000
loop_
_atom_site_label
_atom_site_fract_x
_atom_site_fract_y
_atom_site_fract_z
_atom_site_occupancy
_atom_site_B_iso_or_equiv
as      0.121   -0.021   0.763    1.00000    1.954
as      0.424   0.139   0.856    1.00000    1.923
as      0.321   0.126   0.178    1.00000    1.910
as      0.039   0.161   0.715    1.00000    2.082
s      0.344   -0.006   0.701    1.00000    2.123
s      0.214   -0.023   0.116    1.00000    2.052
s      0.239   0.226   0.639    1.00000    2.313
s      0.107   0.210   0.052    1.00000    2.431
_cell_measurement_wavelength    1.541874
_cell_measurement_radiation   'x-rays'
_exptl_crystal_density_diffrn    3.541000
loop_
_pd_peak_d_spacing
_pd_peak_intensity
     7.476690         80.43
     6.793550         57.60
     6.037896        415.83
     5.735171        443.09
     5.517622        259.38
     5.412183       1000.00
     4.629784        100.34
     4.589051         21.54
     4.513048         11.99
     4.477161          0.46
     4.347760          0.02
     4.252253         44.81
     4.074490        214.34
     4.041482         29.48
     3.802745         38.76
     3.738345         72.06
     3.682620         50.92
     3.623051          5.43
     3.615835         91.95
     3.396775          5.13
     3.223520         25.25
     3.198035         11.21
     3.184012        310.15
     3.175940        246.43
     3.163194        419.00
     3.156841         30.31
     3.107293         16.38
     3.080806         65.61
     3.054930        328.12
     3.018948          1.07
     2.992684        200.86
     2.980522         67.66
     2.961396        231.92
     2.960450          0.50
     2.947077        151.07
     2.928596        507.42
     2.915260         16.25
     2.867585         86.98
     2.786189        110.92
     2.758811         14.42
     2.732659        120.71
     2.730221        412.61
     2.706091         95.79
     2.693028        141.33
     2.662070          2.41
     2.658519         59.66
     2.638169          2.78
     2.600316        169.00
     2.593306         21.89
     2.547112          9.24
     2.532637         21.73
     2.520221        125.40
     2.512021         17.45
     2.496829          2.42
     2.492230        134.74
     2.478017        156.46
     2.444739         95.81
     2.406101         44.41
     2.399432         90.03
     2.363406         66.61
     2.349074          0.31
     2.346633         16.83
     2.338224          0.06
     2.323014          7.24
     2.314892          5.19
     2.300326         26.01
     2.295096          0.30
     2.294526         13.98
     2.292710          0.12
     2.271432          0.61
     2.264517        133.75
     2.262491          1.67
     2.256524          0.17
     2.242146         50.38
     2.238580         19.08
     2.231734        111.27
     2.208802         20.96
     2.202755         19.63
     2.196557        120.57
     2.195399         96.16
     2.173880         30.63
     2.168404         68.81
     2.151326          2.15
     2.136196          2.85
     2.135528         98.11
     2.132046          6.40
     2.131956        114.54
     2.126126         48.37
     2.120298         41.82
     2.109630         41.03
     2.095278          0.94
     2.090025          0.50
     2.083847         28.63
     2.083564          2.03
     2.070880          1.33
     2.061250          0.18
     2.057330         47.49
     2.046833          4.32
     2.046812         18.01
     2.037245         41.91
     2.030729          5.78
     2.030389          2.41
     2.020741         26.49
     2.019720          0.10
     2.013998          0.96
     2.012632         20.18
     2.009391         20.72
     2.006823          2.71
     2.000699         10.36
     1.990908         12.68
     1.984250         44.88
     1.976380         21.89
     1.948665          7.01
     1.933750          4.12
     1.932066         32.07
     1.931572          0.63
     1.929729          4.88
     1.924277          2.17
     1.920602          2.28
     1.914458         14.48
     1.911724          4.71
     1.901372          9.22
     1.897392          4.98
     1.896958          7.08
     1.869172          7.55
     1.868870         20.14
     1.867779         19.19
     1.865445         48.84
     1.865181          3.91
     1.859871         84.58
     1.857164        123.24
     1.855639         10.36
     1.850377         28.03
     1.847878          3.11
     1.844500          5.95
     1.844213         14.17
     1.841310         73.36
     1.839207          3.16
     1.821910          0.00
     1.819211        106.47
     1.817473          0.88
     1.811525          4.46
     1.807917         17.39
     1.804061         18.37
     1.800953        101.19
     1.797473         14.02
     1.791611         29.42
     1.787682          4.01
     1.786291         64.22
     1.780856          0.65
     1.778428         23.41
     1.776434          2.69
     1.775508          3.77
     1.768185         47.67
     1.767093         12.47
     1.764723         17.52
     1.753145         15.83
     1.752066          1.20
     1.747475         18.22
     1.732565          6.01
     1.731705         17.97
     1.731511         48.72
     1.727808          4.37
     1.726707         23.11
     1.714134         16.26
     1.708264        117.70
     1.698388         43.78
     1.697520         61.48
     1.690273          5.20
     1.687141          0.84
     1.683480         43.53
     1.680511        121.99
     1.679081         31.85
     1.674620         91.53
     1.671818          5.99
     1.668933          3.67
     1.668638         13.27
     1.666158         29.87
     1.665994         30.38
     1.665849          0.24
     1.665394          5.53
     1.661319         28.13
     1.654379          2.54
     1.645240         23.43
     1.640306          2.71
     1.638295         22.36
     1.636669         59.43
     1.634938          5.04
     1.633310          4.31
     1.632675         14.92
     1.627474          9.31
     1.627204         15.94
     1.623423         31.58
     1.622830          8.92
     1.617342          0.06
     1.614431          0.37
     1.611760         13.63
     1.611377          0.89
     1.609017          0.20
     1.607640          5.84
     1.599717         14.34
     1.599018          1.98
     1.597852          9.12
     1.596504         39.67
     1.593540          0.01
     1.592803          2.43
     1.592006          4.91
     1.587970          6.99
     1.586891          0.85
     1.585318          4.86
     1.584832          1.74
     1.584174          6.79
     1.581597          0.03
     1.581006         16.71
     1.578420         47.88
     1.578189          0.77
     1.576679         29.14
     1.575547          0.14
     1.570990          6.76
     1.565994          0.01
     1.565701          4.71
     1.564433         16.34
     1.562500         15.68
     1.555385          7.97
     1.553646         19.07
     1.547737         25.54
     1.546370          0.07
     1.544451          0.02
     1.543261          1.48
     1.541415          1.31
     1.540403          6.18
     1.540120          8.46
     1.539246          7.07
     1.529684          5.27
     1.527718          3.96
     1.527465          0.29
     1.520149         18.82
     1.520081          0.04
     1.517903         23.76
     1.516177          2.20
     1.515361         45.19
     1.515025          5.85
     1.509474         40.82
     1.509208          3.11
     1.508389          0.45
     1.506803          6.06
     1.504813         39.80
     1.504349         20.69
     1.500244         24.94
     1.496342         18.62
     1.495891          6.71
     1.495338          0.71
     1.493170          5.01
     1.492387          0.82
     1.492321          2.82
     1.490955          2.65
     1.490261          1.00
     1.488668          5.54
     1.484409          5.62
     1.483465          0.48
     1.481905         13.15
     1.480698         11.46
     1.480225          0.30
     1.478013         29.96
     1.476346          0.55
     1.476144          6.36
     1.474977          2.96
     1.473538          9.55
     1.470541          1.11
     1.470328         40.03
     1.468446          2.00
     1.466508          0.66
     1.464591          1.87
     1.464298         66.32
     1.462764          0.01
     1.458119          7.72
     1.457630          4.40
     1.454501          7.07
     1.454126         15.08
     1.453110         43.48
     1.452457         10.59
     1.449253          0.28
     1.447366         14.31
     1.445851         18.52
     1.444660          7.15
     1.443347         14.47
     1.440895          0.26
     1.436360          0.63
     1.434071          3.03
     1.433793          7.94
     1.432032          1.18
     1.430540         40.25
     1.428142         18.46
     1.423376          0.46
     1.417418          0.04
     1.416050          6.27
     1.415934          0.25
     1.415488          0.03
     1.413533          3.21
     1.412659         13.41
     1.407392         16.36
     1.405145         12.63
     1.404686          1.10
     1.403653          4.54
     1.397137          2.33
     1.394830         11.73
     1.394777          0.28
     1.393417          4.95
     1.393286          2.78
     1.393095          2.22
     1.391524          5.14
     1.390189         10.57
     1.384515          0.30
     1.383638          0.67
     1.379405          0.85
     1.377367          0.04
     1.373769          0.09
     1.373699          1.74
     1.373513          0.00
     1.372175          1.90
     1.372151         24.69
     1.370134          1.73
     1.369929          3.21
     1.368860         25.82
     1.368846          0.46
     1.366930          3.82
     1.366800          7.49
     1.366329          0.51
     1.365110          4.26
     1.363635          0.42
     1.362460          1.98
     1.362066          0.68
     1.361387          2.67
     1.358710          1.23
     1.358163          3.74
     1.353434          0.26
     1.353046          5.24
     1.350260         13.13
     1.349340          0.29
     1.348197          0.04
     1.347161          0.23
     1.346514          3.21
     1.345865          0.93
     1.343598          2.25
     1.343333          0.76
     1.341337          2.87
     1.336577          0.59
     1.335394          2.16
     1.334791          1.03
     1.332997          0.08
     1.331528         12.62
     1.331035          0.59
     1.329298          5.40
     1.329259         28.91
     1.328717          3.74
     1.328418         12.86
     1.327871          0.00
     1.325562          4.17
     1.325092          5.27
     1.323102          0.00
     1.322981          0.08
     1.322738          3.42
     1.319560         11.95
     1.319084          0.39
     1.317498          1.93
     1.316595          0.20
     1.316218          0.24
     1.314623          1.34
     1.313438         10.64
     1.313021          1.16
     1.311634          0.02
     1.310888          1.18
     1.309804         18.60
     1.308099          0.00
     1.305794          0.00
     1.305551          4.69
     1.305241          2.46
     1.304559          0.98
     1.304356          0.18
     1.302807          3.45
     1.301018          1.39
     1.300158          5.38
     1.299806          0.08
     1.299300          2.71
     1.299260          2.84
     1.298045          0.01
     1.297990          1.91
     1.296653          3.54
     1.295406          8.80
     1.294773          3.46
     1.293486          0.05
     1.292413          0.85
     1.290622          0.56
     1.284503          2.66
     1.282363          0.04
     1.282322          1.93
     1.281798          1.31
     1.281610          5.79
     1.278981         10.11
     1.276690         13.49
     1.276086          0.84
     1.275493          0.99
     1.273557          0.59
     1.270994          0.47
     1.270578          2.93
     1.269173          0.04
     1.267582          0.66
     1.266935          4.64
     1.266744          2.47
     1.266318          1.81
     1.264484          4.50
     1.261180          0.84
     1.261093          0.20
     1.260822         12.25
     1.260110          0.04
     1.259827          0.50
     1.259043          0.15
     1.258466          0.79
     1.257098          9.45
     1.256569          0.03
     1.256010          7.30
     1.255857          0.04
     1.255047          0.58
     1.254687          0.21
     1.254196          1.54
     1.253321          0.82
     1.252393          1.99
     1.252193          0.79
     1.251648          0.01
     1.248415          1.34
     1.246115          0.01
     1.245013          0.26
     1.244846          2.69
     1.244158          1.41
     1.243888          0.94
     1.243755          8.73
     1.243133          1.78
     1.242878          0.22
     1.242802          2.44
     1.241460          2.13
     1.239612          2.52
     1.239009          0.01
     1.238743          0.74
     1.238115          0.91
     1.237884          0.65
     1.237156          0.28
     1.236613          1.47
     1.236538         14.76
     1.233858          9.40
     1.233615          0.00
     1.233388          0.21
     1.232747          0.86
     1.232647          1.61
     1.232338          7.95
     1.231029          2.08
     1.230056          0.00
     1.227540          1.19
     1.226100          0.02
     1.226006          7.28
     1.223604          4.11
     1.222370          4.37
     1.222095          2.26
     1.219517         10.22
     1.218837         17.26
     1.218616          0.05
     1.218387          3.39
     1.217925          0.57
     1.217906          0.06
     1.217453          0.02
     1.213358          0.52
     1.212527          1.37
     1.212300          3.06
     1.211703          0.48
     1.211255          7.29
     1.210128          3.61
     1.207684          8.76
     1.207579          0.03
     1.206416          0.41
     1.206268          0.02
     1.205278          1.65
     1.203050          0.61
     1.202838          6.82
     1.201688          0.80
     1.201542          0.01
     1.201434          7.61
     1.200635          1.99
     1.200358          4.14
     1.199716          1.69
     1.197115          0.07
     1.194085          3.16
     1.192741          5.25
     1.192328          6.10
     1.191567          0.18
     1.190707          6.46
     1.190115          9.89
     1.190049          1.60
     1.189981          2.55
     1.189884          0.11
     1.189280          0.01
##############################################################################
###                            Comments                                    ###
##############################################################################
###   Diffraction pattern calculated by Match!. 
###   I/Ic calculated by Match!. 
##############################################################################


