##############################################################################
###               Crystal structure data exported by Match!                ###
##############################################################################
###                           Data published by:                           ###
###                                                                        ###
###               COD (Crystallography Open Database)
##############################################################################
data_9007162
_citation_journal_full    'Physics and Chemistry of Minerals'
_citation_journal_volume  '30'
_citation_page_first  '167'
_citation_page_last   '176'
_citation_year  '2003'
_citation_title  'Compression mechanisms of coesiteSample: X1P0, in cell, P = 0.0001 GPa'
loop_
_publ_author_name
  'Angel R. J.'
  'Shaw C. S. J.'
  'Gibbs G. V.'
_chemical_formula_sum  'O2 Si'
_chemical_name_mineral  'Coesite'
_symmetry_space_group_name_H-M 'C 1 2/c 1'
_space_group_IT_number 15
_space_group_crystal_system 'monoclinic'
loop_
_symmetry_equiv_pos_as_xyz
   'x, y, z'
   'x+0.5, y+0.5, z'
   '-x, y, -z+0.5'
   '-x+0.5, y+0.5, -z+0.5'
   '-x, -y, -z'
   '-x+0.5, -y+0.5, -z'
   'x, -y, z+0.5'
   'x+0.5, -y+0.5, z+0.5'
_cell_length_a        7.13660
_cell_length_b       12.37230
_cell_length_c        7.17490
_cell_angle_alpha    90.0000
_cell_angle_beta    120.3300
_cell_angle_gamma    90.0000
loop_
_atom_site_label
_atom_site_fract_x
_atom_site_fract_y
_atom_site_fract_z
_atom_site_occupancy
_atom_site_B_iso_or_equiv
si      0.141   0.108   0.072    1.00000    0.400
si      0.507   0.158   0.541    1.00000    0.442
o      0.000   0.000   0.000    1.00000    0.720
o      0.500   0.117   0.750    1.00000    0.580
o      0.266   0.123   0.941    1.00000    0.730
o      0.311   0.104   0.328    1.00000    0.870
o      0.018   0.212   0.479    1.00000    0.709
_cell_measurement_wavelength    1.541874
_cell_measurement_radiation   'x-rays'
_cell_measurement_pressure       100.000000
_exptl_crystal_density_diffrn    2.919000
loop_
_pd_peak_d_spacing
_pd_peak_intensity
     6.186150         61.67
     5.548127         10.77
     5.514198          5.55
     4.376646         50.88
     3.445519         65.83
     3.435043        142.32
     3.426945        411.05
     3.421175        709.96
     3.103614        997.55
     3.096440        861.65
     3.093075       1000.00
     3.090856        859.37
     3.079911        170.33
     2.774063         22.29
     2.768938         77.97
     2.767132         64.08
     2.757099        147.14
     2.706689         92.25
     2.694840        315.90
     2.337186         86.59
     2.305523         36.09
     2.299165          8.11
     2.298553          2.91
     2.296122         26.04
     2.293335         63.62
     2.291889         43.23
     2.195981         20.78
     2.190851         33.38
     2.188323         22.96
     2.182465         63.07
     2.179189          1.30
     2.062050          0.11
     2.040735          5.02
     2.039569         22.54
     2.036910          1.19
     2.035164         27.92
     2.031846         91.88
     2.031116          8.19
     2.030112          0.35
     2.025570         28.71
     1.958148          2.07
     1.956445          0.67
     1.870672          8.82
     1.860259         16.95
     1.849376         77.34
     1.838066        101.03
     1.793719        178.10
     1.785360        111.27
     1.784080          1.79
     1.779992          0.24
     1.722759          0.88
     1.717522          9.68
     1.717021         33.28
     1.716303         44.53
     1.714215         34.25
     1.713473        115.59
     1.710587         33.10
     1.706938          8.42
     1.704548          6.70
     1.702714          7.99
     1.700148          0.52
     1.699901         20.50
     1.698917         64.86
     1.697787          2.48
     1.697639        128.48
     1.697200          3.26
     1.692174          7.09
     1.655719        172.43
     1.648486          6.84
     1.590157          3.72
     1.588224         13.07
     1.587289          1.09
     1.585487         37.75
     1.583095         42.59
     1.582631         52.53
     1.580122         36.42
     1.578200          8.19
     1.551807         45.37
     1.551680         40.66
     1.549656          0.70
     1.548220         20.00
     1.546538         47.17
     1.545428         37.15
     1.543721          4.40
     1.542769         82.66
     1.539956         36.70
     1.505172          0.99
     1.502155          5.34
     1.501898          5.64
     1.500458         26.86
     1.496748          0.43
     1.494350         16.76
     1.458882          1.16
     1.418986         20.39
     1.416401         11.17
     1.414212          0.70
     1.412852          0.22
     1.411808         12.41
     1.410344          7.86
     1.410064         14.31
     1.408995         13.24
     1.408911         25.59
     1.408660          1.06
     1.407262         18.89
     1.405782          2.15
     1.404585         32.91
     1.388544          0.01
     1.387032          3.55
     1.384469          0.97
     1.384204          1.00
     1.383566          4.43
     1.382082          6.99
     1.380034          2.99
     1.378550          0.00
     1.353345          0.73
     1.349190         85.08
     1.347519         15.97
     1.347420         61.54
     1.345503        113.53
     1.344627         34.87
     1.343895         45.76
     1.342178          0.15
     1.342059          1.47
     1.341694         68.95
     1.341128         14.05
     1.339642         47.06
     1.339537         26.49
     1.337374          5.08
     1.337333         37.91
     1.324342         79.56
     1.320109         60.89
     1.316435          9.35
     1.313304         51.78
     1.294179          8.13
     1.291709         18.77
     1.288266         10.29
     1.287280          3.98
     1.286038         41.12
     1.285274         46.91
     1.283679         87.05
     1.282408          3.34
     1.282217         13.11
     1.278935          0.14
     1.241726          0.05
     1.239923          5.65
     1.238091         11.95
     1.237714         45.23
     1.237230          9.04
     1.235374          5.82
     1.235243         18.23
     1.233921          1.56
     1.233852         41.42
     1.233017         14.62
     1.232614          0.01
     1.231163          1.57
     1.230395          7.63
     1.229296         14.30
     1.228309          0.10
     1.227511         40.08
     1.225902         19.47
     1.214473         12.67
     1.213255          0.39
     1.190266         36.56
     1.188754          2.03
     1.187486         26.38
     1.186884         32.07
     1.186151          0.21
     1.185283         35.07
     1.184482         47.50
     1.184476         31.80
     1.184282          1.01
     1.181887          0.01
     1.181241          0.84
     1.180422         32.27
     1.174481          2.84
     1.173313          6.99
     1.172254          0.00
     1.171289         11.23
     1.169961          0.13
     1.168953          1.89
     1.168593          8.46
     1.167994         21.71
     1.167442         19.46
     1.167120          0.02
     1.166889          1.89
     1.166127          5.64
     1.164223         17.14
     1.153870          0.14
     1.152762          0.01
     1.149816          5.71
     1.149583          3.36
     1.149544          0.05
     1.149277          2.67
     1.148911          0.02
     1.148506          5.32
     1.148061          8.49
     1.147115          1.17
     1.146667          2.17
     1.145945          3.10
     1.145014          0.72
     1.144137          2.79
     1.142315          6.85
     1.140392         16.62
     1.132849         38.76
     1.125917         10.80
     1.111231          0.62
     1.110140          4.15
     1.109720         21.03
     1.109625          7.85
     1.109254          0.64
     1.106732          4.06
     1.106665          2.58
     1.106461          0.83
     1.106256         12.71
     1.105309         13.84
     1.104011          8.70
     1.102840         16.16
     1.101725          0.30
     1.097991          0.02
     1.097036          0.64
     1.095987         13.05
     1.095425          0.37
     1.094668          8.76
     1.094295          4.00
     1.094162          0.00
     1.092570          2.10
     1.091779          3.89
     1.091233          0.21
     1.091155          0.26
     1.089706         20.11
     1.089595          0.97
     1.077022          3.16
     1.076679         21.13
     1.075221          1.65
     1.074687         25.04
     1.074620         10.62
     1.074173          8.51
     1.074089         21.86
     1.073242          2.12
     1.072499          8.83
     1.072490          0.00
     1.072387          1.62
     1.072354          0.08
     1.070973          0.14
     1.070465          1.34
     1.069985          0.81
     1.068360          2.99
     1.061764          4.09
     1.061221          6.64
     1.047925         25.72
     1.047765          0.12
     1.044253          5.90
     1.042273          0.51
     1.034538          0.03
     1.032147          1.51
     1.031025          0.13
     1.030285          6.79
     1.026637         23.06
     1.020552          0.03
     1.020368          0.08
     1.019785          0.08
     1.019490          3.27
     1.018455          4.97
     1.018073          0.34
     1.017767         16.91
     1.017582         24.84
     1.017124          2.86
     1.017027          5.50
     1.016681         25.10
     1.015923         16.01
     1.015892          8.38
     1.015607          7.30
     1.015558          6.69
     1.015056         16.07
     1.014429          2.09
     1.014266          3.54
     1.013799          7.51
     1.013723          0.61
     1.013359          0.54
     1.013305          8.21
     1.013222          0.00
     1.013097          0.42
     1.012785          0.78
     1.011901          9.22
     1.010862          2.61
     1.010677         10.91
     1.009819          2.82
     1.008022          7.53
##############################################################################
###                            Comments                                    ###
##############################################################################
###   Diffraction pattern calculated by Match!. 
###   I/Ic calculated by Match!. 
###   Space group has been derived from given symmetry operations. 
##############################################################################


