##############################################################################
###               Crystal structure data exported by Match!                ###
##############################################################################
###                           Data published by:                           ###
###                                                                        ###
###               COD (Crystallography Open Database)
##############################################################################
data_4115458
_citation_journal_full    'Journal of the American Chemical Society'
_citation_journal_volume  '123'
_citation_page_first  '2204'
_citation_page_last   '2212'
_citation_year  '2001'
_citation_title  'Ti Location in the MFI Framework of Ti-Silicalite-1: A Neutron PowderDiffraction Study'
loop_
_publ_author_name
  'Carlo Lamberti'
  'Silvia Bordiga'
  'Adriano Zecchina'
  'Gilberto Artioli'
  'Gianluigi Marra'
  'Guido Span?'
_chemical_formula_sum  'O2 Si'
_chemical_name_common  'Silica'
_symmetry_space_group_name_H-M 'P n m a'
_space_group_IT_number 62
_space_group_crystal_system 'orthorhombic'
loop_
_symmetry_equiv_pos_as_xyz
   'x, y, z'
   '-x+0.5, -y, z+0.5'
   'x+0.5, -y+0.5, -z+0.5'
   '-x, y+0.5, -z'
   '-x, -y, -z'
   'x+0.5, y, -z+0.5'
   '-x+0.5, y+0.5, z+0.5'
   'x, -y+0.5, z'
_cell_length_a       20.12825
_cell_length_b       19.94490
_cell_length_c       13.41945
_cell_angle_alpha    90.0000
_cell_angle_beta     90.0000
_cell_angle_gamma    90.0000
_cell_formula_units_Z 96
loop_
_atom_site_label
_atom_site_fract_x
_atom_site_fract_y
_atom_site_fract_z
_atom_site_occupancy
_atom_site_B_iso_or_equiv
si      0.425   0.056   -0.333    1.00000    1.661
si      0.309   0.029   -0.185    1.00000    1.661
si      0.278   0.062   0.034    1.00000    1.661
si      0.120   0.062   0.029    1.00000    1.661
si      0.072   0.029   -0.188    1.00000    1.661
si      0.191   0.062   -0.325    1.00000    1.661
si      0.424   -0.174   -0.323    1.00000    1.661
si      0.311   -0.130   -0.185    1.00000    1.661
si      0.274   -0.175   0.033    1.00000    1.661
si      0.122   -0.172   0.033    1.00000    1.661
si      0.072   -0.127   -0.178    1.00000    1.661
si      0.188   -0.173   -0.319    1.00000    1.661
o      0.377   0.046   -0.239    1.00000    3.322
o      0.308   0.062   -0.076    1.00000    3.322
o      0.199   0.066   0.027    1.00000    3.322
o      0.102   0.058   -0.087    1.00000    3.322
o      0.118   0.051   -0.279    1.00000    3.322
o      0.249   0.063   -0.244    1.00000    3.322
o      0.379   -0.160   -0.228    1.00000    3.322
o      0.305   -0.155   -0.072    1.00000    3.322
o      0.198   -0.152   0.035    1.00000    3.322
o      0.086   -0.159   -0.071    1.00000    3.322
o      0.120   -0.156   -0.263    1.00000    3.322
o      0.250   -0.148   -0.256    1.00000    3.322
o      0.317   -0.050   -0.190    1.00000    3.322
o      0.082   -0.049   -0.162    1.00000    3.322
o      0.416   0.126   -0.388    1.00000    3.322
o      0.412   0.002   -0.418    1.00000    3.322
o      0.399   -0.130   -0.414    1.00000    3.322
o      0.191   0.132   -0.380    1.00000    3.322
o      0.200   0.002   -0.402    1.00000    3.322
o      0.200   -0.132   -0.421    1.00000    3.322
o      -0.003   0.049   -0.214    1.00000    3.322
o      -0.001   -0.154   -0.201    1.00000    3.322
o      0.422   -0.250   -0.362    1.00000    3.322
o      0.199   -0.250   -0.344    1.00000    3.322
o      0.286   -0.250   0.069    1.00000    3.322
o      0.117   -0.250   0.061    1.00000    3.322
si      0.425   0.056   -0.333    1.00000    1.661
si      0.309   0.029   -0.185    1.00000    1.661
si      0.278   0.062   0.034    1.00000    1.661
si      0.120   0.062   0.029    1.00000    1.661
si      0.072   0.029   -0.188    1.00000    1.661
si      0.191   0.062   -0.325    1.00000    1.661
si      0.424   -0.174   -0.323    1.00000    1.661
si      0.311   -0.130   -0.185    1.00000    1.661
si      0.274   -0.175   0.033    1.00000    1.661
si      0.122   -0.172   0.033    1.00000    1.661
si      0.072   -0.127   -0.178    1.00000    1.661
si      0.188   -0.173   -0.319    1.00000    1.661
_cell_measurement_wavelength    1.541874
_cell_measurement_radiation   'x-rays'
_exptl_crystal_density_diffrn    2.609000
loop_
_pd_peak_d_spacing
_pd_peak_intensity
    11.165499       1000.00
    11.133905        678.25
    10.064125        479.24
     9.972450        511.04
     9.742724        232.34
     8.985047         11.98
     8.051433          8.13
     7.466047          0.18
     7.437749         19.19
     7.083777          2.50
     6.709725         64.13
     6.365375        153.53
     6.264536          0.87
     6.064035         12.15
     6.001140        129.51
     5.957288         80.43
     5.746646          0.07
     5.712349         90.95
     5.582750         69.36
     5.566952         49.69
     5.547219         11.14
     5.376115         11.65
     5.365520         35.15
     5.141911         13.24
     5.126487          0.32
     5.032063         34.35
     4.986225         54.50
     4.879168          5.38
     4.871362          0.07
     4.744383          0.17
     4.711694          0.75
     4.615595         43.11
     4.597768          0.83
     4.585479          3.46
     4.552864          4.19
     4.492523          2.13
     4.467925          7.13
     4.454720         12.73
     4.366622         17.78
     4.364725         30.56
     4.284250          2.71
     4.275316         12.46
     4.265589         11.90
     4.260133         68.79
     4.239141          0.02
     4.087585         12.02
     4.025717          0.03
     4.012333         34.05
     4.004355          5.10
     4.002131          0.04
     3.999971          5.29
     3.946136          1.43
     3.925292          1.02
     3.861873         17.64
     3.855888        484.87
     3.844181          0.39
     3.835148          0.59
     3.823628        392.25
     3.785789          0.30
     3.782195          0.00
     3.756451        165.84
     3.733023          0.00
     3.721833        257.60
     3.718875          0.76
     3.711302         23.00
     3.708316         13.38
     3.658678          0.45
     3.649779        207.41
     3.596414         19.13
     3.574352          0.01
     3.541888          0.09
     3.486907         22.28
     3.482085          6.05
     3.452008          0.32
     3.443600         68.76
     3.437103          0.25
     3.424613          0.01
     3.401438         16.28
     3.380111         13.13
     3.354862          5.37
     3.354708         30.11
     3.343206         19.41
     3.335491          1.37
     3.324150         27.41
     3.322039          2.03
     3.309212         54.91
     3.308238          3.96
     3.297206          0.38
     3.285018          0.00
     3.264582          7.07
     3.262099          0.18
     3.254554          5.42
     3.247575          7.28
     3.245609         16.09
     3.212071          0.64
     3.185954          1.98
     3.182687         11.93
     3.179752          0.01
     3.179621          1.33
     3.169822          8.62
     3.161146          0.37
     3.156429          0.12
     3.142923          0.63
     3.140803         19.18
     3.132268          0.17
     3.125951          4.38
     3.093957          1.64
     3.072578          0.37
     3.063643          3.51
     3.053209         84.93
     3.050249          5.00
     3.044444          3.42
     3.032017          0.07
     3.000653          0.24
     3.000570          1.51
     2.995016         11.14
     2.992304         68.28
     2.986822          0.06
     2.982580          4.96
     2.978644          3.58
     2.977151         62.35
     2.967260          9.64
     2.967180          4.42
     2.962507          3.60
     2.959185          0.08
     2.946555          0.14
     2.945110         62.54
     2.923099          0.42
     2.907847          2.22
     2.873396          1.80
     2.873323          0.23
     2.870696          6.00
     2.866062         16.78
     2.856175          0.73
     2.854859          5.75
     2.838213          0.37
     2.833534          5.70
     2.811642          8.82
     2.791375          0.24
     2.787140         13.37
     2.784114          1.67
     2.783476          0.70
     2.783388          0.07
     2.776808          0.80
     2.773609          0.72
     2.772382          0.04
     2.764432          0.01
     2.760798          0.01
     2.757237          0.19
     2.741520          0.26
     2.734985          3.48
     2.734923         36.04
     2.728659          1.58
     2.725381          0.08
     2.722419          0.00
     2.721279          0.01
     2.716199          0.31
     2.706142          0.39
     2.688057          0.09
     2.686040          0.00
     2.683811         14.23
     2.682760          1.82
     2.660344          6.24
     2.659915          7.98
     2.659839          0.07
     2.644952          0.44
     2.642988          2.78
     2.636990          0.56
     2.620083          4.03
     2.610299         50.10
     2.600623          1.83
     2.593260          5.33
     2.591601          0.00
     2.589584         14.17
     2.578997          0.02
     2.577228          0.48
     2.573894          0.70
     2.573724         12.44
     2.571614          0.35
     2.571008          0.01
     2.570956          0.01
     2.570452          0.94
     2.567459         14.63
     2.565750          0.37
     2.563243          0.58
     2.562292          0.03
     2.555978         15.74
     2.554786          0.87
     2.546891         17.34
     2.537851          1.07
     2.521720          2.79
     2.517709          5.23
     2.516031         26.61
     2.509790          0.23
     2.496248          0.39
     2.495248          1.78
     2.493113         22.10
     2.491913         23.77
     2.488745         18.32
     2.488682          1.21
     2.487844          6.67
     2.479401         18.16
     2.479250          5.23
     2.472941          0.22
     2.472689          0.02
     2.469937          1.30
     2.456027          3.40
     2.454149         10.50
     2.449111          0.06
     2.442630          1.51
     2.439584          7.36
     2.438135          0.00
     2.435681          0.25
     2.433194          3.00
     2.419966          4.68
     2.418811         32.11
     2.417580          3.58
     2.415971          5.38
     2.403158          0.10
     2.402991         15.87
     2.401218          1.68
     2.400243          1.08
     2.397947         31.84
     2.397904         22.17
     2.394455          0.06
     2.393679          0.00
     2.386211         30.80
     2.381551          0.27
     2.372192          0.04
     2.368114          0.23
     2.363232          0.12
     2.361313          0.47
     2.361259          0.43
     2.357238          0.35
     2.355847         31.45
     2.355589          1.39
     2.353156          3.41
     2.351596          0.04
     2.350655          1.10
     2.347163          0.03
     2.345230          2.19
     2.339583          0.20
     2.337444          0.56
     2.337001          3.60
     2.335216          0.02
     2.333390          0.63
     2.325696         23.64
     2.325533          0.01
     2.321407         17.09
     2.317791          3.39
     2.307797          0.08
     2.304043          2.22
     2.302336          0.30
     2.300704          0.35
     2.298884          0.00
     2.298136          6.44
     2.292740          1.93
     2.291524          0.04
     2.289487          0.02
     2.287029          1.65
     2.276432          5.96
     2.273046          0.00
     2.262413          1.29
     2.246262          0.22
     2.236575         21.11
     2.234226          3.43
     2.233963          0.41
     2.233100         18.41
     2.230819          0.06
     2.229050          0.24
     2.227394          0.00
     2.227360          0.09
     2.226781         19.90
     2.226736          1.60
     2.223973          1.58
     2.222894          5.97
     2.220555          0.25
     2.219233          0.09
     2.215439          0.05
     2.213278          4.20
     2.209216          0.09
     2.206954          0.98
     2.206045          0.02
     2.203637         36.02
     2.203253          6.45
     2.197425          4.10
     2.192936          0.38
     2.192674          0.06
     2.186486          0.00
     2.183311          0.03
     2.183258          2.48
     2.182363          2.50
     2.179799          0.55
     2.179134          2.53
     2.176267          0.48
     2.174197          2.60
     2.173699          1.02
     2.171684          0.05
     2.170346          0.00
     2.170294          0.00
     2.169647          1.97
     2.168555          0.02
     2.165076          0.73
     2.164723         38.18
     2.164252          0.42
     2.159195          0.60
     2.153972          0.00
     2.146719          0.00
     2.143794          0.70
     2.142125          0.07
     2.141764          0.23
     2.139121          0.09
     2.137658          0.17
     2.136643          0.59
     2.132794          0.01
     2.132745          1.91
     2.130067          0.00
     2.128452          0.13
     2.128077          1.21
     2.122863          0.07
     2.121792          1.24
     2.121714          0.31
     2.119571          0.03
     2.116875          0.04
     2.113424          0.23
     2.109886          4.68
     2.109809          0.01
     2.108175          1.01
     2.101813         24.93
     2.095728          6.45
     2.093786          4.88
     2.093607          9.56
     2.092889          0.09
     2.088179          0.45
     2.084254          0.44
     2.082568          3.82
     2.078882          0.08
     2.077068          0.59
     2.075337          0.08
     2.075264          2.02
     2.074319          0.01
     2.074274          2.84
     2.071336          2.56
     2.068776          0.23
     2.068275          4.76
     2.066184          3.28
     2.066157          3.05
     2.063452          1.33
     2.059753          0.02
     2.050929          0.10
     2.044665          0.03
     2.043793          0.19
     2.040686          0.18
     2.038902          5.22
     2.038045          0.01
     2.036780          0.00
     2.036311          0.02
     2.033146          0.00
     2.030278          0.61
     2.028496          0.58
     2.028134          0.06
     2.021345          0.35
     2.021277          0.01
     2.021116          1.46
     2.017417          0.12
     2.012858         26.97
     2.012825         23.06
     2.007859          0.09
     2.007376          0.00
     2.006166          1.23
     2.005360          0.33
     2.002685          0.19
     2.002653          0.02
     2.002177          0.09
     2.001302          3.19
     2.001065         10.02
     2.001033          1.11
     2.000380          0.49
     1.999986          0.06
     1.999945          0.10
     1.998772          1.04
     1.998584          8.13
     1.994490         31.59
     1.993955          0.17
     1.993876          1.46
     1.991249          9.91
     1.990558          0.02
     1.990394          0.26
     1.985763          0.02
     1.984117          0.17
     1.980718          1.39
     1.979150          1.08
     1.976169          0.07
     1.973068          1.02
     1.973037          2.34
     1.963411          2.70
     1.962646          3.75
     1.962030          0.00
     1.961311          0.34
     1.956441          1.86
     1.955831          0.75
     1.955097          0.10
     1.953648          0.02
     1.953617          0.00
     1.953566         15.54
     1.952605          0.15
     1.952377          0.09
     1.952317          0.00
     1.952050          0.06
     1.948545          0.10
     1.948201          0.33
     1.945771          0.28
     1.944510          4.55
     1.941753          0.10
     1.941384          0.02
     1.937701          0.00
     1.935974          0.11
     1.932015          0.04
     1.930936          0.13
     1.930493          0.08
     1.928735          0.13
     1.927944          0.02
     1.926497          0.00
     1.926468          0.39
     1.925124          0.13
     1.922090          1.09
     1.921689          3.17
     1.921374          0.00
     1.918999          0.06
     1.918574          0.21
     1.917847          0.31
     1.917596          8.17
     1.917574          1.06
     1.915549         10.45
     1.915411          2.41
     1.915202          0.20
     1.915167          0.01
     1.911814          1.40
     1.911335          1.19
     1.908428          0.17
     1.908270          1.10
     1.906919          0.98
     1.904116          0.29
     1.903248          0.76
     1.899751          0.01
     1.892895          0.02
     1.892696          0.90
     1.891097          0.00
     1.885969          0.97
     1.883203          1.56
     1.881794          2.52
     1.878226          0.88
     1.875747          1.45
     1.875674          5.70
     1.874864          0.57
     1.874414          0.01
     1.873272         16.74
     1.873219          0.08
     1.867615          2.32
     1.866512          1.11
     1.866485          0.49
     1.865392          6.14
     1.864884          0.01
     1.860917          0.18
     1.860884          0.04
     1.859437          0.07
     1.856549          0.04
     1.855651          0.22
     1.855264          0.95
     1.854158          0.53
     1.853665          0.91
     1.852869          0.01
     1.852837          0.01
     1.851658          0.00
     1.850497          0.00
     1.849073          0.01
     1.848689          0.03
     1.847815          0.02
     1.847140          0.23
     1.843967          1.30
     1.843297          2.68
     1.842013          1.67
     1.841345          0.14
     1.838628          0.00
     1.838103          0.03
     1.836709          0.08
     1.835578          1.75
     1.835553          0.31
     1.835475          0.00
     1.834348          0.91
     1.831765          0.03
     1.830499          0.01
     1.829339          0.07
     1.829308          6.39
     1.827853          0.45
     1.827828          0.03
     1.826596          0.02
     1.825769          0.06
     1.824890          0.00
     1.824859          0.00
##############################################################################
###                            Comments                                    ###
##############################################################################
###   Diffraction pattern calculated by Match!. 
###   I/Ic calculated by Match!. 
###   Space group has been derived from given symmetry operations. 
##############################################################################


