##############################################################################
###               Crystal structure data exported by Match!                ###
##############################################################################
###                           Data published by:                           ###
###                                                                        ###
###               COD (Crystallography Open Database)
##############################################################################
data_1530438
_citation_journal_full    'Journal of Applied Physics'
_citation_journal_volume  '55'
_citation_page_first  '2733'
_citation_page_last   '2737'
_citation_year  '1984'
_citation_title  'Determination of the crystal structure of Pb2 Cr O5'
loop_
_publ_author_name
  'Morita S.'
  'Toda K.'
_chemical_formula_sum  'Cr O5 Pb2'
_chemical_name_common  'Lead Chromate Oxide'
_symmetry_space_group_name_H-M 'C 1 2/m 1'
_space_group_IT_number 12
_space_group_crystal_system 'monoclinic'
loop_
_symmetry_equiv_pos_as_xyz
   'x, y, z'
   'x+0.5, y+0.5, z'
   '-x, y, -z'
   '-x+0.5, y+0.5, -z'
   '-x, -y, -z'
   '-x+0.5, -y+0.5, -z'
   'x, -y, z'
   'x+0.5, -y+0.5, z'
_cell_length_a       14.01800
_cell_length_b        5.68300
_cell_length_c        7.14300
_cell_angle_alpha    90.0000
_cell_angle_beta    115.2300
_cell_angle_gamma    90.0000
_cell_formula_units_Z 4
loop_
_atom_site_label
_atom_site_fract_x
_atom_site_fract_y
_atom_site_fract_z
_atom_site_occupancy
_atom_site_B_iso_or_equiv
cr      0.172   0.000   0.653    1.00000    1.000
pb      0.523   0.000   0.266    1.00000    1.000
o      0.165   0.237   0.781    1.00000    1.000
o      0.284   0.000   0.630    1.00000    1.000
o      0.000   0.250   0.000    1.00000    1.000
pb      0.143   0.000   0.107    1.00000    1.000
o      0.072   0.000   0.421    1.00000    1.000
_cell_measurement_wavelength    1.541874
_cell_measurement_radiation   'x-rays'
_exptl_crystal_density_diffrn    7.050000
loop_
_pd_peak_d_spacing
_pd_peak_intensity
     6.461586        139.28
     6.340369        158.53
     5.974255        118.82
     5.186015         18.23
     4.439906        135.43
     3.789538         84.85
     3.738816         41.38
     3.556451          6.63
     3.542831         87.17
     3.495662          0.35
     3.391626       1000.00
     3.230793         84.75
     3.170185          1.93
     2.987128        209.78
     2.985714        816.62
     2.883024        205.29
     2.841500        364.50
     2.652821         26.87
     2.601105          9.83
     2.593007         36.16
     2.566042         49.77
     2.549940          0.16
     2.512880        151.57
     2.482251        152.52
     2.461308         82.95
     2.370177         50.01
     2.368930         16.43
     2.322418         28.14
     2.315990         67.68
     2.292903          2.36
     2.273388        107.53
     2.265538        105.31
     2.219953          0.00
     2.204934         16.04
     2.188168         49.53
     2.153862          0.77
     2.133676         37.24
     2.124646          6.32
     2.115938          1.04
     2.113456         88.61
     2.058802        225.63
     2.019636         10.49
     2.016490          1.94
     1.991418         41.06
     1.952145         51.83
     1.894769          0.33
     1.876622         68.86
     1.873543          2.08
     1.870449         48.40
     1.869408        190.86
     1.867258          2.36
     1.860413         55.07
     1.830527         15.72
     1.820108         14.70
     1.817103          3.29
     1.798211         12.80
     1.795312          0.37
     1.784405          2.74
     1.778226         49.55
     1.771415         80.10
     1.769864          3.45
     1.754507         49.77
     1.747831          8.84
     1.747740         11.64
     1.733556          3.65
     1.728672        127.78
     1.725967         10.62
     1.718214         48.71
     1.716475          0.68
     1.701785          0.28
     1.695813         47.13
     1.672742          0.04
     1.666940        135.53
     1.663061         38.13
     1.657799          2.25
     1.648417         34.98
     1.630795         41.08
     1.624827         56.07
     1.615397          0.13
     1.608970         66.43
     1.601689          4.82
     1.588844         22.43
     1.585092          6.92
     1.578184          0.12
     1.576432          2.34
     1.569279         36.76
     1.532308          3.29
     1.530850          3.49
     1.529294         79.05
     1.520627         69.88
     1.517752          0.01
     1.517698         16.87
     1.507708         26.50
     1.507386         63.52
     1.502076         36.16
     1.499848          0.89
     1.493564          4.47
     1.492857         43.51
     1.488738          5.98
     1.479969         12.11
     1.471203         52.12
     1.470309         63.53
     1.466467          1.61
     1.459843          1.56
     1.459687         43.95
     1.441512          1.99
     1.431916          9.57
     1.428298          8.38
     1.426645          5.37
     1.424410          2.17
     1.423305          0.43
     1.420750         51.69
     1.406927          1.98
     1.404324          2.32
     1.400825          0.17
     1.400126         17.15
     1.399564          0.01
     1.387604          4.28
     1.387278          0.02
     1.386370          5.10
     1.384277          8.27
     1.382203          4.18
     1.380001          0.00
     1.379718          0.14
     1.374072         10.64
     1.371462         21.49
     1.369047         16.55
     1.367795          0.51
     1.367567          9.39
     1.358573          5.08
     1.356627          1.76
     1.338630          0.26
     1.331838         20.43
     1.330327          8.95
     1.326410          2.05
     1.324174         20.80
     1.322058          2.83
     1.319367          0.30
     1.316301          0.84
     1.316194          0.35
     1.312544          1.12
     1.312378          0.00
     1.309241          3.51
     1.308635          0.30
     1.303074         15.63
     1.300552          8.51
     1.298592          0.17
     1.296504          0.19
     1.296408          0.21
     1.292317          8.87
     1.283021         28.08
     1.281138         14.39
     1.276150          8.45
     1.274970          8.74
     1.268074          3.95
     1.263412         22.47
     1.263179         11.61
     1.260837          6.89
     1.256440          2.05
     1.255914         27.18
     1.255530          0.79
     1.246638          0.01
     1.246272          8.97
     1.241143          0.28
     1.241125         12.24
     1.240010          3.69
     1.238177          1.05
     1.234981         11.12
     1.233060         30.90
     1.230654          3.86
     1.230468         14.22
     1.226031          6.84
     1.225683          3.24
     1.218591          8.97
     1.216904         34.43
     1.212523         28.76
     1.211953          5.10
     1.207700          0.60
     1.205628          0.01
     1.203649         21.18
     1.203055         15.12
     1.201294         36.32
     1.194851          8.50
     1.191440          0.03
     1.187728          0.39
     1.187017         23.52
     1.185974          0.09
     1.185484          0.93
     1.185089          0.01
     1.184525          0.79
     1.184465         24.84
     1.180944         20.16
     1.179094         20.39
     1.176369         19.22
     1.172267          0.59
     1.165221         11.80
     1.165206         34.28
     1.161209          3.52
     1.157995          5.51
     1.156576         12.67
     1.154793         17.96
     1.154264         16.83
     1.146451         15.83
     1.146371          0.61
     1.145657          8.35
     1.145380         12.15
     1.139801         12.09
     1.137537          0.00
     1.137364         14.81
     1.136694          0.24
     1.134209          5.65
     1.133924          0.04
     1.132769          0.03
     1.132062          0.32
     1.130542          4.11
     1.129785          2.65
     1.129290          9.44
     1.124338          0.88
     1.122361          2.71
     1.121816          0.04
     1.119245          0.92
     1.114096          0.11
     1.114029          0.11
     1.111125          0.02
     1.109977         18.74
     1.107934          0.89
     1.105818          4.86
     1.105655         11.23
     1.104137         18.35
     1.102467          2.81
     1.102444          2.58
     1.101435         11.38
     1.101060          0.53
     1.097611         26.50
     1.096561          0.20
     1.094920         20.03
     1.094293          0.01
     1.094084          1.70
     1.093773          0.40
     1.093051          0.29
     1.089942         21.83
     1.089338          0.14
     1.083669          1.56
     1.082871          0.03
     1.081292         26.52
     1.080341          0.01
     1.078785          1.03
     1.078416          0.04
     1.078095         17.94
     1.076931          5.04
     1.076284          0.00
     1.076187          8.82
     1.074916          4.74
     1.072095          7.29
     1.069820         26.24
     1.066838          0.06
     1.063178         24.43
     1.062861          1.13
     1.062323         18.84
     1.058963          0.00
     1.057969          3.65
     1.056728          0.00
     1.055907          0.05
     1.055231          2.19
     1.054101          0.60
     1.053228          8.52
     1.052238          0.56
     1.052127          7.01
     1.050387          0.00
     1.049877          1.77
     1.046576          3.80
     1.043441          0.01
     1.041831          0.76
     1.041529          0.90
     1.040234          6.77
     1.039314          0.12
     1.037203          4.20
     1.033998         13.99
     1.033799          0.01
     1.031452          0.56
     1.031063         23.49
     1.029401          2.26
     1.024918          3.81
     1.022447          0.28
     1.021157         14.09
     1.020360          0.22
     1.019644          7.21
     1.018162          0.56
     1.015008          6.60
     1.009818          0.18
     1.009239          1.49
     1.008245          0.89
     1.007973         22.37
     1.007280          5.22
     1.007031          8.93
     1.006700          3.23
     1.006502          0.01
##############################################################################
###                            Comments                                    ###
##############################################################################
###   Diffraction pattern calculated by Match!. 
###   I/Ic calculated by Match!. 
###   Space group has been derived from given symmetry operations. 
##############################################################################


