##############################################################################
###               Crystal structure data exported by Match!                ###
##############################################################################
###                           Data published by:                           ###
###                                                                        ###
###               COD (Crystallography Open Database)
##############################################################################
data_9000805
_citation_journal_full    'American Mineralogist'
_citation_journal_volume  '66'
_citation_page_first  '324'
_citation_page_last   '333'
_citation_year  '1981'
_citation_title  'High-pressure crystal structure and compressibility of coesiteP = 31.5 kbar'
loop_
_publ_author_name
  'Levien L.'
  'Prewitt C. T.'
_chemical_formula_sum  'O2 Si'
_chemical_name_mineral  'Coesite'
_symmetry_space_group_name_H-M 'C 1 2/c 1'
_space_group_IT_number 15
_space_group_crystal_system 'monoclinic'
loop_
_symmetry_equiv_pos_as_xyz
   'x, y, z'
   'x+0.5, y+0.5, z'
   '-x, y, -z+0.5'
   '-x+0.5, y+0.5, -z+0.5'
   '-x, -y, -z'
   '-x+0.5, -y+0.5, -z'
   'x, -y, z+0.5'
   'x+0.5, -y+0.5, z+0.5'
_cell_length_a        7.04070
_cell_length_b       12.27900
_cell_length_c        7.13420
_cell_angle_alpha    90.0000
_cell_angle_beta    120.6100
_cell_angle_gamma    90.0000
loop_
_atom_site_label
_atom_site_fract_x
_atom_site_fract_y
_atom_site_fract_z
_atom_site_occupancy
_atom_site_B_iso_or_equiv
si      0.138   0.109   0.071    1.00000    0.439
si      0.508   0.158   0.543    1.00000    0.430
o      0.000   0.000   0.000    1.00000    0.910
o      0.500   0.111   0.750    1.00000    0.690
o      0.258   0.127   0.932    1.00000    0.670
o      0.316   0.102   0.326    1.00000    0.760
o      0.023   0.213   0.473    1.00000    0.820
_cell_measurement_wavelength    1.541874
_cell_measurement_radiation   'x-rays'
_cell_measurement_pressure       3150000.000000
_exptl_crystal_density_diffrn    3.007000
loop_
_pd_peak_d_spacing
_pd_peak_intensity
     6.139500         61.69
     5.503139          6.16
     5.433941          4.77
     4.341484         34.83
     3.425471         67.20
     3.408392        138.66
     3.391759        352.86
     3.375557        705.66
     3.078005        973.08
     3.070036        803.10
     3.069750       1000.00
     3.053547        823.47
     3.029800        177.14
     2.751570         14.55
     2.745872         87.42
     2.745719         59.88
     2.716971        117.65
     2.689152        105.34
     2.664799        287.12
     2.313490        112.03
     2.291285         61.58
     2.280996          9.43
     2.275990         27.83
     2.272663          4.73
     2.266250         79.55
     2.257906         56.25
     2.182374         26.00
     2.173554         42.44
     2.170742         22.76
     2.156378         52.31
     2.148015          5.38
     2.046500          0.20
     2.026368         23.01
     2.023936          8.07
     2.022774          2.78
     2.013452         33.31
     2.012348        102.80
     2.008989          5.36
     2.003169          0.46
     1.993081         32.04
     1.941643          0.68
     1.941498          0.12
     1.858390          8.13
     1.837036         15.47
     1.834380         92.16
     1.811314        106.65
     1.783542        161.67
     1.769186        115.72
     1.759881          2.17
     1.755412          0.08
     1.712735          0.13
     1.704196          8.59
     1.702901         35.37
     1.702840         55.37
     1.695933          8.58
     1.695879         90.88
     1.693264          7.62
     1.691749         28.21
     1.691141         13.56
     1.687778         30.12
     1.686991         16.68
     1.684963         52.65
     1.683612          0.51
     1.681000          4.14
     1.679063        129.75
     1.677586          1.74
     1.665794          7.88
     1.638368        170.94
     1.623680          6.70
     1.579675          2.57
     1.577517         12.49
     1.574656          1.11
     1.574108         41.13
     1.569180         36.26
     1.566015         45.09
     1.559993         36.43
     1.555233         13.71
     1.542146         45.43
     1.539006          0.04
     1.539002         39.40
     1.535018         13.75
     1.534875         46.57
     1.526813          9.18
     1.526773         24.36
     1.523853         72.58
     1.514900         30.31
     1.492815          0.00
     1.489178          3.50
     1.489056         27.54
     1.487191          4.58
     1.476179          1.56
     1.470788         15.05
     1.447161          0.20
     1.408182         12.52
     1.406923         21.65
     1.404609          1.36
     1.403092          0.78
     1.401883         11.05
     1.397585          6.99
     1.396090         13.84
     1.394980         26.77
     1.394133          1.01
     1.392602         15.15
     1.387343          1.82
     1.386923         17.81
     1.384005         35.83
     1.380295          0.27
     1.375785          5.58
     1.373570          2.00
     1.372936          1.81
     1.372860          6.38
     1.369204          5.87
     1.362827          1.94
     1.358485          0.02
     1.344576          0.75
     1.339477         16.22
     1.336149        127.33
     1.334351         85.34
     1.333358         48.90
     1.332400         55.19
     1.332012          1.26
     1.331020         38.20
     1.331013         68.43
     1.327155         12.70
     1.326047          2.21
     1.324420         28.70
     1.321141         52.88
     1.318618         41.64
     1.316300          3.78
     1.315366         73.58
     1.307684         68.09
     1.300179         11.11
     1.292845         60.38
     1.286218          5.18
     1.282568         23.02
     1.277032         43.34
     1.275485          8.78
     1.274305         88.27
     1.272552         52.10
     1.272048          4.08
     1.271686          5.04
     1.269174          9.88
     1.259670          0.05
     1.233195          0.18
     1.230010          3.27
     1.227973          8.60
     1.227941         53.30
     1.227900          7.19
     1.227691          4.68
     1.225321          0.07
     1.225059         17.23
     1.224313         12.37
     1.218913          5.92
     1.217601         41.57
     1.217325          1.26
     1.214579          0.01
     1.213808          0.58
     1.213526          9.54
     1.211570         41.45
     1.206060         18.71
     1.204163         10.49
     1.204059          0.48
     1.183492         34.91
     1.179076         28.66
     1.179015          2.82
     1.177634          1.11
     1.175547         27.89
     1.175083         29.77
     1.174194         45.81
     1.173029          0.37
     1.172882         31.56
     1.167432          0.87
     1.166125          5.72
     1.165369          0.12
     1.164995          0.09
     1.164750          0.21
     1.163388         13.47
     1.162050         29.69
     1.159376          1.39
     1.156745          5.48
     1.156310          0.01
     1.155473         16.10
     1.154196          0.08
     1.152931          1.95
     1.152400         17.82
     1.148538          2.20
     1.146882          0.69
     1.146465         13.20
     1.145643          0.16
     1.141824          4.51
     1.140498          2.17
     1.140168          5.00
     1.140091          0.61
     1.139243          0.19
     1.137995          5.75
     1.136331          1.73
     1.136131          0.92
     1.134270          0.89
     1.133125          1.42
     1.130586          5.36
     1.128953          2.42
     1.126984          2.72
     1.125186         11.82
     1.124938         39.27
     1.110753         11.96
     1.103480          0.32
     1.102535         19.69
     1.101275          0.26
     1.100628          7.21
     1.098361          3.28
     1.097801          0.30
     1.095936          2.77
     1.095110         12.44
     1.095009          2.96
     1.092242         16.34
     1.091187          0.01
     1.090815         11.70
     1.090119          1.51
     1.086788         14.75
     1.086778          7.55
     1.086777          0.43
     1.085371          0.03
     1.085329         14.80
     1.084101          0.24
     1.082459          4.12
     1.082088          3.23
     1.079318          3.12
     1.078189          0.33
     1.075711          0.79
     1.074007          0.38
     1.072573         21.65
     1.070189         23.00
     1.069472          3.28
     1.067464          1.10
     1.067048         21.10
     1.066920         11.69
     1.066382         20.64
     1.065327          3.24
     1.064303          6.93
     1.063796          7.41
     1.062808          0.29
     1.062324          0.64
     1.061847          0.02
     1.059419          0.52
     1.056732          0.97
     1.056453          1.86
     1.052988          3.60
     1.052942          6.50
     1.051802          2.21
     1.040977         23.11
     1.037772          0.01
     1.033422          6.81
     1.026604          0.16
     1.026002          0.00
     1.023345          3.02
     1.023250          0.10
     1.017849          4.67
     1.014041          0.04
     1.013184          0.11
     1.012262          5.37
     1.011968          0.04
     1.011877         17.24
     1.011387          3.92
     1.009936          0.94
     1.009933         19.03
     1.009419          0.05
     1.009330          5.45
     1.008244          4.97
     1.007748          9.97
     1.007013         28.37
     1.006885          2.65
     1.006726         23.82
##############################################################################
###                            Comments                                    ###
##############################################################################
###   Diffraction pattern calculated by Match!. 
###   I/Ic calculated by Match!. 
###   Space group has been derived from given symmetry operations. 
##############################################################################


