##############################################################################
###               Crystal structure data exported by Match!                ###
##############################################################################
###                           Data published by:                           ###
###                                                                        ###
###               COD (Crystallography Open Database)
##############################################################################
data_4124031
_citation_journal_full    'Journal of the American Chemical Society'
_citation_journal_volume  '126'
_citation_page_first  '9769'
_citation_page_last   '9775'
_citation_year  '2004'
_citation_title  'Chemical evaluation of hypothetical uninodal zeolites'
loop_
_publ_author_name
  'Foster M.D.'
  'Friedrichs O.D.'
  'Bell R.G.'
  'Paz F.A.A.'
  'Klinowski J.'
_chemical_formula_sum  'O2 Si'
_chemical_name_common  'Silica'
_symmetry_space_group_name_H-M 'I 41/a m d'
_space_group_IT_number 141
_space_group_crystal_system 'tetragonal'
loop_
_symmetry_equiv_pos_as_xyz
   'x, y, z'
   'x+0.5, y+0.5, z+0.5'
   '-x, -y+0.5, -z+0.25'
   '-x+0.5, -y, -z+0.75'
   '-y, x+0.5, z+0.25'
   '-y+0.5, x, z+0.75'
   '-x, -y, z'
   '-x+0.5, -y+0.5, z+0.5'
   'y, -x+0.5, z+0.25'
   'y+0.5, -x, z+0.75'
   'y, -x, -z'
   'y+0.5, -x+0.5, -z+0.5'
   '-y, x, -z'
   '-y+0.5, x+0.5, -z+0.5'
   'x, -y+0.5, -z+0.25'
   'x+0.5, -y, -z+0.75'
   '-x, y+0.5, -z+0.25'
   '-x+0.5, y, -z+0.75'
   'y, x, -z'
   'y+0.5, x+0.5, -z+0.5'
   '-y, -x, -z'
   '-y+0.5, -x+0.5, -z+0.5'
   'x, y+0.5, -z+0.25'
   'x+0.5, y, -z+0.75'
   '-x, y, z'
   '-x+0.5, y+0.5, z+0.5'
   'x, -y, z'
   'x+0.5, -y+0.5, z+0.5'
   '-y, -x+0.5, z+0.25'
   '-y+0.5, -x, z+0.75'
   'y, x+0.5, z+0.25'
   'y+0.5, x, z+0.75'
_cell_length_a       10.03404
_cell_length_b       10.03404
_cell_length_c       20.60379
_cell_angle_alpha    90.0000
_cell_angle_beta     90.0000
_cell_angle_gamma    90.0000
_cell_formula_units_Z 32
loop_
_atom_site_label
_atom_site_fract_x
_atom_site_fract_y
_atom_site_fract_z
_atom_site_occupancy
_atom_site_B_iso_or_equiv
o      0.301   0.699   0.000    1.00000    1.000
si      0.352   0.659   0.928    1.00000    1.000
o      0.644   0.000   0.327    1.00000    1.000
o      0.250   0.719   0.875    1.00000    1.000
o      0.500   0.784   0.335    1.00000    1.000
_cell_measurement_wavelength    1.541874
_cell_measurement_radiation   'x-rays'
_exptl_crystal_density_diffrn    1.539000
loop_
_pd_peak_d_spacing
_pd_peak_intensity
     9.021139       1000.00
     5.843357        104.69
     5.667485         29.35
     5.150948         36.55
     5.017020        150.13
     4.510570          7.49
     4.384576         31.63
     3.811832         60.85
     3.756587          5.57
     3.593984          1.54
     3.547569          6.34
     3.301463        115.10
     3.090973         35.89
     3.035158          3.63
     3.032460         57.84
     3.007046          8.10
     2.921678          0.39
     2.833743          0.10
     2.824388         40.00
     2.757899          9.95
     2.701592          0.97
     2.596912          9.69
     2.579239          0.15
     2.575474          8.15
     2.508510          0.95
     2.461182          2.25
     2.437294          2.81
     2.416812          9.83
     2.330470         31.13
     2.306267          2.73
     2.305082         16.05
     2.293861          1.99
     2.291211          4.20
     2.255285          0.73
     2.243680          2.52
     2.231955          0.93
     2.209623          5.97
     2.192288          5.42
     2.095469          0.00
     2.084157          8.99
     2.057007          2.30
     2.039259          0.33
     2.025609          0.70
     2.022184          3.48
     1.999670          0.02
     1.997356         18.11
     1.978640          0.01
     1.947786          2.28
     1.932890          3.13
     1.926259          2.05
     1.905916          0.34
     1.889162          0.88
     1.878294          0.15
     1.875562          3.23
     1.855702          3.15
     1.841266          2.50
     1.838257          3.55
     1.804228          1.51
     1.798269          1.46
     1.796992         17.44
     1.773785          5.46
     1.767974          0.01
     1.728532          0.35
     1.728034          0.00
     1.716983          6.41
     1.707367          1.11
     1.697780          0.09
     1.697307          4.21
     1.691747          5.46
     1.677129          1.67
     1.672340         10.43
     1.667468          6.18
     1.658094          9.98
     1.650731          0.03
     1.644324          5.54
     1.634256          0.38
     1.632151          0.18
     1.624484          0.15
     1.603969          0.58
     1.592166          1.47
     1.590608          0.07
     1.586521          1.34
     1.574342          0.24
     1.568036          0.13
     1.565498          4.85
     1.563648          0.92
     1.562541          0.10
     1.553894          0.04
     1.553531          0.20
     1.545486          0.87
     1.538463          0.00
     1.531438          2.00
     1.527789          0.06
     1.517579          0.41
     1.516230          0.22
     1.510077          0.12
     1.509080          2.35
     1.503523          0.00
     1.494433          0.32
     1.491860          6.62
     1.484328          0.67
     1.464719          0.50
     1.461525          3.18
     1.460839          0.51
     1.445121          2.05
     1.441026          2.49
     1.440239          0.03
     1.439006          3.75
     1.432243          5.62
     1.430826          0.02
     1.429978          1.23
     1.423062          0.39
     1.416871          1.80
     1.412194          0.22
     1.406023          3.89
     1.405754          2.60
     1.403197          1.24
     1.402590          9.69
     1.391471          5.03
     1.383233          0.58
     1.378949          1.66
     1.377223          0.21
     1.375208          0.14
     1.369302          1.87
     1.368063          0.58
     1.363538          0.49
     1.360894          2.29
     1.353861          3.42
     1.351338          0.00
     1.350796          2.18
     1.343320          1.31
     1.338340          0.94
     1.335085          6.53
     1.333479          7.42
     1.328092          1.08
     1.320984          0.03
     1.320762          0.36
     1.313431          0.60
     1.311465          5.05
     1.307105          0.56
     1.306889          3.03
     1.298456          0.01
     1.293748          0.14
     1.293121          1.37
     1.289619          0.21
     1.288734          7.77
     1.287737          1.33
     1.282237          0.52
     1.276439          0.16
     1.270611          3.81
     1.269368          0.05
     1.262823          0.09
     1.257039          0.02
     1.254255          0.32
     1.252196          0.71
     1.249529          4.46
     1.248211          2.42
     1.247305          1.91
     1.245061          0.80
     1.243790          1.30
     1.242861          0.29
     1.242305          5.82
     1.237946          0.23
     1.233682          0.24
     1.231723          0.94
     1.230591          0.28
     1.230101         12.64
     1.226501          0.39
     1.224624          0.87
     1.224221          2.66
     1.218647          0.96
     1.216806          0.05
     1.215446          0.31
     1.214926          1.01
     1.210457          1.37
     1.208406          0.30
     1.207244          0.00
     1.203242          0.00
     1.201898          0.16
     1.197995          5.19
     1.196200          0.16
     1.193217          0.04
     1.191416          0.60
     1.184213          0.85
     1.182523          2.06
     1.180797          1.01
     1.178560          0.41
     1.178129          0.00
     1.177454          0.08
     1.172960          0.11
     1.172493          0.21
     1.170062          0.02
     1.168826          0.34
     1.168671          0.71
     1.165235          2.03
     1.159028          0.02
     1.157594          0.47
     1.153133          1.41
     1.152541          0.27
     1.146930          0.05
     1.146308          0.68
     1.145606          0.43
     1.142880          2.04
     1.139483          0.23
     1.138341          0.05
     1.137629          1.45
     1.133497          1.12
     1.130044          0.18
     1.129424          0.32
     1.127642          0.47
     1.121840          0.00
     1.120366          0.63
##############################################################################
###                            Comments                                    ###
##############################################################################
###   Diffraction pattern calculated by Match!. 
###   I/Ic calculated by Match!. 
###   Space group has been derived from given symmetry operations. 
##############################################################################


