##############################################################################
###               Crystal structure data exported by Match!                ###
##############################################################################
###                           Data published by:                           ###
###                                                                        ###
###               COD (Crystallography Open Database)
##############################################################################
data_9013803
_citation_journal_full    'The Canadian Mineralogist'
_citation_journal_volume  '47'
_citation_page_first  '1245'
_citation_page_last   '1255'
_citation_year  '2009'
_citation_title  'The orthorhombic structure of CaCO3, SrCO3, PbCO3 and BaCO3:Linear structural trendsLocality: synthetic'
loop_
_publ_author_name
  'Antao S. M.'
  'Hassan I.'
_chemical_formula_sum  'C O3 Pb'
_chemical_name_mineral  'Cerussite'
_symmetry_space_group_name_H-M 'P m c n'
_space_group_IT_number 62
_space_group_crystal_system 'orthorhombic'
loop_
_symmetry_equiv_pos_as_xyz
   'x, y, z'
   '-x+0.5, -y+0.5, z+0.5'
   'x+0.5, -y, -z'
   '-x, y+0.5, -z+0.5'
   '-x, -y, -z'
   'x+0.5, y+0.5, -z+0.5'
   '-x+0.5, y, z'
   'x, -y+0.5, z+0.5'
_cell_length_a        5.18324
_cell_length_b        8.49920
_cell_length_c        6.14746
_cell_angle_alpha    90.0000
_cell_angle_beta     90.0000
_cell_angle_gamma    90.0000
loop_
_atom_site_label
_atom_site_fract_x
_atom_site_fract_y
_atom_site_fract_z
_atom_site_occupancy
_atom_site_B_iso_or_equiv
pb      0.250   0.417   0.754    1.00000    1.339
c      0.250   0.754   -0.080    1.00000    1.339
o      0.250   0.906   -0.091    1.00000    1.339
o      0.464   0.679   -0.082    1.00000    1.339
_cell_measurement_wavelength    1.541874
_cell_measurement_radiation   'x-rays'
_exptl_crystal_density_diffrn    6.554000
loop_
_pd_peak_d_spacing
_pd_peak_intensity
     4.981072          0.94
     4.425245        141.03
     4.249600         72.25
     3.591495       1000.00
     3.495673        469.20
     3.073730        169.62
     2.898165          3.24
     2.890511         15.66
     2.643816         12.41
     2.591620        143.75
     2.572981          4.20
     2.524498        170.78
     2.490536         86.36
     2.485957        250.89
     2.304650          0.02
     2.299052          3.20
     2.244839          0.03
     2.212623         60.67
     2.124800         22.25
     2.083173          0.36
     2.081879        273.48
     2.008226        126.54
     1.992073          0.36
     1.981337        131.22
     1.932905        236.67
     1.929599          0.59
     1.872587          1.56
     1.859470        171.92
     1.845773         82.15
     1.825927          2.88
     1.795747         42.13
     1.747836         18.39
     1.738813          0.82
     1.693117         18.13
     1.660357          0.00
     1.656207          0.20
     1.643141         14.41
     1.638360          0.92
     1.632339         87.50
     1.623662          0.00
     1.615200         14.81
     1.587415         82.88
     1.581212          0.08
     1.579401          0.36
     1.562178         72.65
     1.548888          1.69
     1.536865         19.96
     1.512339          2.08
     1.506118          0.23
     1.503443         48.46
     1.487525          0.11
     1.483013         22.10
     1.475082         40.83
     1.474988         22.61
     1.473459          0.00
     1.451803         24.60
     1.449082         20.47
     1.445256         12.05
     1.434367          0.27
     1.429809         22.42
     1.419598          0.22
     1.418665          0.35
     1.416533         18.29
     1.398050          0.00
     1.392150          0.45
     1.384842          0.16
     1.380361          0.00
     1.350896          0.21
     1.333871          0.03
     1.329872         60.29
     1.321908         28.35
     1.309735          0.01
     1.308295          0.08
     1.307228         56.61
     1.306203          0.03
     1.305223         48.86
     1.295810         17.95
     1.290116          0.24
     1.286491         26.38
     1.281912         44.69
     1.268511         41.59
     1.262249         10.96
     1.261364          0.22
     1.254069          0.00
     1.248606          0.50
     1.245268          4.82
     1.242979         31.16
     1.239468          4.56
     1.228743          0.01
     1.218324          0.06
     1.216826          0.24
     1.215018         30.95
     1.211714          3.85
     1.210814          0.08
     1.197921          0.59
     1.197165          0.17
     1.194041         16.61
     1.191160          0.00
     1.188840         27.90
     1.184620         27.55
     1.182429          0.26
     1.182170          3.26
     1.181055         12.77
     1.167916          0.10
     1.165224          0.14
     1.160900         26.11
     1.157326          0.06
     1.152325         28.72
     1.151539          0.17
     1.149526          9.79
     1.148307          0.11
     1.140002          0.02
     1.137968          8.14
     1.136851          0.00
     1.129260          0.03
     1.127861          0.09
     1.127283          9.97
     1.122420          7.25
     1.121797          0.15
     1.113391          8.54
     1.108549          0.03
     1.106311          3.71
     1.103377          7.24
     1.102072          0.00
     1.101458          0.92
     1.100308          0.06
     1.088820         23.94
     1.086224          0.09
     1.082314          0.00
     1.078440          0.00
     1.074716         22.24
     1.064212         27.29
     1.064177         11.30
     1.062747          0.00
     1.062400          2.24
     1.060550         19.23
     1.046882         10.11
     1.044573          0.04
     1.043507          0.45
     1.043007         17.83
     1.042433          0.08
     1.041586         12.22
     1.040939          5.71
     1.035250          0.34
     1.034172          0.17
     1.031858          0.65
     1.029022          1.51
     1.026160          0.14
     1.024577          8.08
     1.023986         19.66
     1.021531          0.00
     1.021172          0.05
     1.017212          0.06
     1.016344          0.07
     1.014902         17.35
     1.010220          0.09
##############################################################################
###                            Comments                                    ###
##############################################################################
###   Diffraction pattern calculated by Match!. 
###   I/Ic calculated by Match!. 
###   Space group has been derived from given symmetry operations. 
##############################################################################


