##############################################################################
###               Crystal structure data exported by Match!                ###
##############################################################################
###                           Data published by:                           ###
###                                                                        ###
###               COD (Crystallography Open Database)
##############################################################################
data_9000104
_citation_journal_full    'American Mineralogist'
_citation_journal_volume  '46'
_citation_page_first  '1283'
_citation_page_last   '1316'
_citation_year  '1961'
_citation_title  'Crystallographic tables for the rhombohedral carbonates'
loop_
_publ_author_name
  'Graf D. L.'
_chemical_formula_sum  'C Cu O3'
_chemical_name_common  'Copper(II) carbonate'
_symmetry_space_group_name_H-M 'R -3 c'
_space_group_IT_number 167
_space_group_crystal_system 'trigonal (hexagonal axes)'
loop_
_symmetry_equiv_pos_as_xyz
   'x, y, z'
   'x+0.66667, y+0.33333, z+0.33333'
   'x+0.33333, y+0.66667, z+0.66667'
   '-y, x-y, z'
   '-y+0.66667, x-y+0.33333, z+0.33333'
   '-y+0.33333, x-y+0.66667, z+0.66667'
   '-x+y, -x, z'
   '-x+y+0.66667, -x+0.33333, z+0.33333'
   '-x+y+0.33333, -x+0.66667, z+0.66667'
   'x-y, -y, -z+0.5'
   'x-y+0.66667, -y+0.33333, -z+0.83333'
   'x-y+0.33333, -y+0.66667, -z+0.16667'
   '-x, -x+y, -z+0.5'
   '-x+0.66667, -x+y+0.33333, -z+0.83333'
   '-x+0.33333, -x+y+0.66667, -z+0.16667'
   'y, x, -z+0.5'
   'y+0.66667, x+0.33333, -z+0.83333'
   'y+0.33333, x+0.66667, -z+0.16667'
   '-x, -y, -z'
   '-x+0.66667, -y+0.33333, -z+0.33333'
   '-x+0.33333, -y+0.66667, -z+0.66667'
   'y, -x+y, -z'
   'y+0.66667, -x+y+0.33333, -z+0.33333'
   'y+0.33333, -x+y+0.66667, -z+0.66667'
   'x-y, x, -z'
   'x-y+0.66667, x+0.33333, -z+0.33333'
   'x-y+0.33333, x+0.66667, -z+0.66667'
   '-x+y, y, z+0.5'
   '-x+y+0.66667, y+0.33333, z+0.83333'
   '-x+y+0.33333, y+0.66667, z+0.16667'
   'x, x-y, z+0.5'
   'x+0.66667, x-y+0.33333, z+0.83333'
   'x+0.33333, x-y+0.66667, z+0.16667'
   '-y, -x, z+0.5'
   '-y+0.66667, -x+0.33333, z+0.83333'
   '-y+0.33333, -x+0.66667, z+0.16667'
_cell_length_a        4.79600
_cell_length_b        4.79600
_cell_length_c       15.48000
_cell_angle_alpha    90.0000
_cell_angle_beta     90.0000
_cell_angle_gamma   120.0000
_cell_formula_units_Z 6
loop_
_atom_site_label
_atom_site_fract_x
_atom_site_fract_y
_atom_site_fract_z
_atom_site_occupancy
_atom_site_B_iso_or_equiv
cu      0.000   0.000   0.000    1.00000    1.000
c      0.000   0.000   0.250    1.00000    1.000
o      0.268   0.000   0.250    1.00000    1.000
_cell_measurement_wavelength    1.541874
_cell_measurement_radiation   'x-rays'
_exptl_crystal_density_diffrn    3.992000
loop_
_pd_peak_d_spacing
_pd_peak_intensity
     3.659805        429.45
     2.831414       1000.00
     2.580000          2.11
     2.398000        249.56
     2.174639        124.62
     2.005784        213.95
     1.829903        114.88
     1.756463        289.82
     1.753995        189.86
     1.561849         16.93
     1.538533        143.70
     1.454727        102.42
     1.450531         28.43
     1.415707         42.32
     1.400148          9.78
     1.397650         16.21
     1.384486         90.27
     1.290000         30.15
     1.280106          6.20
     1.241133         30.56
     1.219935         17.25
     1.219107         49.20
     1.199000         20.58
     1.167886          1.07
     1.148785          0.19
     1.139411         18.14
     1.136051         31.59
     1.104087         59.59
     1.102249         35.06
     1.087320         36.82
     1.079648          0.14
     1.068500          8.54
     1.047874          2.50
     1.029145          2.17
     1.021658          0.12
##############################################################################
###                            Comments                                    ###
##############################################################################
###   Diffraction pattern calculated by Match!. 
###   I/Ic calculated by Match!. 
##############################################################################


