##############################################################################
###               Crystal structure data exported by Match!                ###
##############################################################################
###                           Data published by:                           ###
###                                                                        ###
###               COD (Crystallography Open Database)
##############################################################################
data_1000061
_citation_journal_full    'Zeitschrift fuer Kristallographie, Kristallgeometrie, Kristallphysik,Kristallchemie (-144,1977)'
_citation_journal_volume  '125'
_citation_page_first  '317'
_citation_page_last   '331'
_citation_year  '1967'
_citation_title  'Verfeinerung der Struktur des Bayerits, Al (O H)3'
loop_
_publ_author_name
  'Rothbauer R'
  'Zigan F'
  'O?Daniel H'
_chemical_formula_sum  'Al H3 O3'
_chemical_name_mineral  'Bayerite'
_chemical_name_common  'Aluminium hydroxide'
_symmetry_space_group_name_H-M 'P 1 21/a 1'
_space_group_IT_number 14
_space_group_crystal_system 'monoclinic'
loop_
_symmetry_equiv_pos_as_xyz
   'x, y, z'
   '-x+0.5, y+0.5, -z'
   '-x, -y, -z'
   'x+0.5, -y+0.5, z'
_cell_length_a        5.06200
_cell_length_b        8.67100
_cell_length_c        4.71300
_cell_angle_alpha    90.0000
_cell_angle_beta     90.2700
_cell_angle_gamma    90.0000
_cell_formula_units_Z 4
loop_
_atom_site_label
_atom_site_fract_x
_atom_site_fract_y
_atom_site_fract_z
_atom_site_occupancy
_atom_site_B_iso_or_equiv
al      0.527   0.167   -0.015    1.00000    1.000
o      0.365   -0.011   0.215    1.00000    1.000
o      0.204   0.176   0.777    1.00000    1.000
o      0.344   0.308   0.229    1.00000    1.000
h      0.320   0.520   0.770    1.00000    1.000
h      0.790   0.400   0.730    1.00000    1.000
h      0.320   0.310   0.390    1.00000    1.000
_cell_measurement_wavelength    1.541874
_cell_measurement_radiation   'x-rays'
_exptl_crystal_density_diffrn    2.504000
loop_
_pd_peak_d_spacing
_pd_peak_intensity
     4.712947       1000.00
     4.371553        466.51
     4.335500        236.82
     4.140821          6.48
     3.292820          0.62
     3.211581        127.31
     3.198574        134.71
     3.190768         83.72
     2.703155         32.98
     2.695386          6.59
     2.530972          0.03
     2.509983          2.83
     2.463893         23.47
     2.429587          0.40
     2.356474         56.71
     2.273995          9.79
     2.234176         24.50
     2.225416        360.28
     2.217542        758.34
     2.213246         55.26
     2.185776          1.62
     2.167750          0.03
     2.163513          3.04
     2.155556         27.79
     2.077835          5.22
     2.070783         21.57
     2.070411         13.21
     1.992712          0.57
     1.985988         10.74
     1.979828         28.50
     1.969413         13.75
     1.919099         16.26
     1.913539          0.56
     1.904120          7.62
     1.836617          2.84
     1.834174          0.36
     1.826391          0.15
     1.767652          0.05
     1.763304          0.63
     1.728739         41.64
     1.720632        132.26
     1.719992        237.34
     1.715986         93.83
     1.695373         13.79
     1.687725          8.60
     1.656248          8.02
     1.646410          8.80
     1.640591          7.69
     1.627515          1.02
     1.605790         29.05
     1.599287         21.80
     1.595384         31.61
     1.572427         27.43
     1.570982          1.11
     1.564834          0.04
     1.560312         26.72
     1.555784         30.98
     1.552817          0.09
     1.550135         30.08
     1.548666          1.26
     1.545817          1.69
     1.522993          5.15
     1.520210          0.42
     1.493569          6.27
     1.489636          9.61
     1.483617          1.70
     1.480335          3.19
     1.478483          2.12
     1.477007          8.80
     1.476506          4.85
     1.457184        129.01
     1.445167         71.92
     1.430594          0.85
     1.419573          2.89
     1.416195          0.08
     1.396736          0.90
     1.393761         26.86
     1.390564         29.34
     1.389642          2.78
     1.381669         35.56
     1.380274          1.11
     1.369932          0.46
     1.367905          3.91
     1.357993          1.76
     1.352095          9.45
     1.351578          9.19
     1.347693          2.94
     1.347385          8.30
     1.345457          6.94
     1.337589         44.54
     1.333376          2.25
     1.333057          1.41
     1.332440          1.55
     1.331952          1.41
     1.331502         10.78
     1.330258        112.67
     1.321953         10.17
     1.316511          0.30
     1.310628          1.12
     1.305324          0.12
     1.282595          5.43
     1.280102          3.03
     1.278142          6.59
     1.273221          5.32
     1.272061          9.13
     1.265486          0.39
     1.254992          3.30
     1.252220          4.23
     1.241628          0.50
     1.237116          0.06
     1.234817          3.50
     1.232591          0.07
     1.231947          0.00
     1.224329          3.10
     1.223638         14.96
     1.221439          1.28
     1.220753          0.02
     1.214794          6.99
     1.213902          0.10
     1.213437          0.00
     1.212028         44.91
     1.211633         14.49
     1.209684          0.29
     1.209347         10.01
     1.208832          0.00
     1.203212         10.52
     1.198025          1.20
     1.197685          0.45
     1.196330          1.69
     1.178237         24.95
     1.177633          9.30
     1.175061          0.15
     1.172351          0.13
     1.170446          8.13
     1.167508          0.96
     1.166132          0.08
     1.165506         13.02
     1.164290          0.40
     1.161095          1.60
     1.159242          0.11
     1.157403          0.03
     1.142446          5.85
     1.138806          3.82
     1.138327          0.13
     1.137181          0.98
     1.136998          4.63
     1.136479          2.53
     1.135529          0.22
     1.134846          7.21
     1.133798          6.58
     1.126818          0.70
     1.124564          0.58
     1.117088         10.21
     1.113811          3.17
     1.112708          7.05
     1.112607          1.71
     1.110437          1.25
     1.108931          0.01
     1.108771         11.15
     1.108280          0.37
     1.107931          7.26
     1.106623         30.67
     1.103658          1.37
     1.097607          0.66
     1.096455          1.01
     1.092888          7.64
     1.091065          0.12
     1.083875          4.15
     1.083344          0.45
     1.082341          2.09
     1.081756          0.25
     1.077778          0.14
     1.077411          0.06
     1.074459          0.78
     1.072090          0.00
     1.071118          0.89
     1.070527          0.39
     1.070095          4.30
     1.069724          0.94
     1.068276          1.71
     1.067530          0.45
     1.066244          0.06
     1.066191          2.34
     1.065613         13.41
     1.065593          1.71
     1.063686          2.56
     1.063589          1.77
     1.062038          2.87
     1.059851          0.00
     1.059145          4.69
     1.058273          0.66
     1.056340          0.05
     1.056301          2.54
     1.041973          0.00
     1.041530          0.88
     1.040194          0.12
     1.038917          0.08
     1.038416          0.20
     1.035391          1.18
     1.035205          0.56
     1.034246          0.48
     1.033809          0.00
     1.022251          1.35
     1.017614          2.02
     1.015039          1.34
     1.013888          0.04
     1.013390          0.47
     1.006908          0.45
##############################################################################
###                            Comments                                    ###
##############################################################################
###   Diffraction pattern calculated by Match!. 
###   I/Ic calculated by Match!. 
##############################################################################


