##############################################################################
###               Crystal structure data exported by Match!                ###
##############################################################################
###                           Data published by:                           ###
###                                                                        ###
###               COD (Crystallography Open Database)
##############################################################################
data_4124044
_citation_journal_full    'Journal of the American Chemical Society'
_citation_journal_volume  '126'
_citation_page_first  '9769'
_citation_page_last   '9775'
_citation_year  '2004'
_citation_title  'Chemical evaluation of hypothetical uninodal zeolites'
loop_
_publ_author_name
  'Foster M.D.'
  'Friedrichs O.D.'
  'Bell R.G.'
  'Paz F.A.A.'
  'Klinowski J.'
_chemical_formula_sum  'O2 Si'
_chemical_name_common  'Silica'
_symmetry_space_group_name_H-M 'C m c m'
_space_group_IT_number 63
_space_group_crystal_system 'orthorhombic'
loop_
_symmetry_equiv_pos_as_xyz
   'x, y, z'
   'x+0.5, y+0.5, z'
   '-x, -y, z+0.5'
   '-x+0.5, -y+0.5, z+0.5'
   'x, -y, -z'
   'x+0.5, -y+0.5, -z'
   '-x, y, -z+0.5'
   '-x+0.5, y+0.5, -z+0.5'
   '-x, -y, -z'
   '-x+0.5, -y+0.5, -z'
   'x, y, -z+0.5'
   'x+0.5, y+0.5, -z+0.5'
   '-x, y, z'
   '-x+0.5, y+0.5, z'
   'x, -y, z+0.5'
   'x+0.5, -y+0.5, z+0.5'
_cell_length_a        9.47596
_cell_length_b       10.24498
_cell_length_c        8.88817
_cell_angle_alpha    90.0000
_cell_angle_beta     90.0000
_cell_angle_gamma    90.0000
_cell_formula_units_Z 16
loop_
_atom_site_label
_atom_site_fract_x
_atom_site_fract_y
_atom_site_fract_z
_atom_site_occupancy
_atom_site_B_iso_or_equiv
si      0.664   0.635   0.425    1.00000    1.000
o      0.500   0.339   0.545    1.00000    1.000
o      0.299   0.372   0.750    1.00000    1.000
o      0.750   0.750   0.500    1.00000    1.000
o      0.713   0.500   0.500    1.00000    1.000
_cell_measurement_wavelength    1.541874
_cell_measurement_radiation   'x-rays'
_exptl_crystal_density_diffrn    1.850000
loop_
_pd_peak_d_spacing
_pd_peak_intensity
     6.956516       1000.00
     5.478124        275.16
     5.122490         41.54
     4.737980        477.26
     4.444085        541.18
     4.438172        564.23
     3.745101        119.87
     3.478258          0.43
     3.356856         11.15
     3.241364         41.89
     3.239068         98.79
     3.212730        172.26
     3.021407         22.53
     3.018448        203.80
     2.858130         90.38
     2.739062          1.06
     2.725810        101.57
     2.603627         45.23
     2.564654        130.24
     2.561245         60.95
     2.496956         24.42
     2.461100          5.48
     2.368990          5.29
     2.318839         33.42
     2.255429          0.39
     2.253109          0.06
     2.243737         34.25
     2.222043         22.45
     2.219086          1.63
     2.184029          0.01
     2.177990         12.42
     2.150185          2.63
     2.116684          1.14
     2.114388         28.54
     2.090517          5.79
     2.089901          1.37
     2.055812          1.13
     2.038514          0.04
     2.011786         16.90
     2.009591         54.78
     2.002712          1.38
     1.953730         15.62
     1.937591          9.44
     1.935540          3.42
     1.872550          0.11
     1.863574         41.35
     1.827520          0.05
     1.826041         16.62
     1.825874          0.21
     1.823915         16.64
     1.793420          0.27
     1.789456          0.23
     1.740195         18.04
     1.739129         21.96
     1.722292         25.14
     1.718994         11.19
     1.718588          9.80
     1.707497          8.36
     1.706763          0.00
     1.687719         19.24
     1.679386         54.34
     1.678428          9.13
     1.676834         18.43
     1.659198         24.28
     1.657113         11.79
     1.629042          5.64
     1.620682         18.99
     1.619534         29.59
     1.606365          0.17
     1.604350          8.87
     1.603236          0.21
     1.593897          4.85
     1.582893          6.25
     1.582091         13.69
     1.580756          9.10
     1.579327         16.41
     1.577460          5.67
     1.555413          4.68
     1.552683          0.01
     1.545190          1.52
     1.531743         12.33
     1.510704          0.99
     1.509224          0.03
     1.499821          0.00
     1.488149          4.87
     1.487926         16.55
     1.487647          0.63
     1.486849         16.13
     1.481362          6.92
     1.479391         13.04
     1.460365          3.13
     1.448876          5.09
     1.446418         12.66
     1.446260          0.53
     1.429065          0.05
     1.427878          4.60
     1.427638          0.26
     1.423052          0.40
     1.413867          0.64
     1.412153          1.93
     1.410783         10.08
     1.395577          0.24
     1.391303          0.08
     1.385186          0.08
     1.375403          6.32
     1.374565          6.00
     1.370052          0.53
     1.369531          0.13
     1.368665          0.81
     1.362905          0.02
     1.359633          0.67
     1.353923          0.00
     1.345245          9.60
     1.344794         38.27
     1.344302         34.38
     1.342044          0.45
     1.329844         11.54
     1.329462         10.80
     1.329185          0.85
     1.328388          0.10
     1.327943         18.19
     1.327756          2.55
     1.327002          0.49
     1.322436          0.04
     1.313365          2.91
     1.301814          0.63
     1.299790          0.01
     1.287297          2.36
     1.286722         21.68
     1.286286          9.02
     1.284741          1.56
     1.282327         35.12
     1.280622         15.17
     1.272354          5.03
     1.267533          1.23
     1.259355          3.60
     1.258442          7.91
     1.256015          7.62
     1.254813          7.58
     1.249102          0.08
     1.248478          0.73
     1.248367         26.26
     1.246015          0.05
     1.243140          0.12
     1.237794         23.81
     1.236260         12.91
     1.235723          7.81
     1.232441          0.43
     1.231431         10.11
     1.230550          5.75
     1.224473          0.11
     1.224179          3.03
     1.222473         11.19
     1.219880          0.41
     1.212219          0.00
     1.212125          2.55
     1.211787          2.80
     1.210832         14.11
     1.192749          3.52
     1.191834          4.03
     1.191035          5.47
     1.190964          1.95
     1.184495          0.22
     1.180859          0.09
     1.179220          0.43
     1.175509          3.52
     1.175488          0.10
     1.170401          3.00
     1.159626          1.15
     1.159419          5.11
     1.158365          7.66
     1.158284          4.01
     1.154044          0.79
     1.150501         16.60
     1.150192          0.04
     1.149679          4.56
     1.148777          2.83
     1.148651          0.43
     1.144539          0.52
     1.144437          1.50
     1.140918          0.05
     1.139896          0.16
     1.137616          0.07
     1.130205          0.00
     1.129470          0.79
     1.127714          0.22
     1.126555          0.20
     1.122169          7.86
     1.121939          0.01
     1.121868          4.85
     1.121177          1.49
     1.120914          2.52
     1.120460          0.47
     1.118952          1.30
     1.117613          0.05
     1.116996          1.54
     1.113704          0.76
     1.111021          0.52
     1.109543          0.73
     1.106177          0.47
     1.104408          7.83
     1.097117          1.06
     1.095625          5.84
     1.095339          0.09
     1.095024          0.00
     1.094669          2.58
     1.093335          0.52
     1.092630          1.07
     1.092014          0.09
     1.088995          0.48
     1.085776          0.17
     1.081680          0.53
     1.080455         12.12
     1.080316          2.59
     1.079689         12.24
     1.078838          0.08
     1.075344          0.16
     1.075093          2.31
     1.072371          0.04
     1.072226          1.58
     1.071079          1.94
     1.070910          2.92
     1.067313          0.00
     1.063870          3.31
     1.063220          4.39
     1.058342          0.01
     1.057194          1.18
     1.055979          3.49
     1.055380          8.53
     1.053000          0.22
     1.050008          3.07
     1.049323          0.02
     1.047368          0.83
     1.045259          0.24
     1.044950          0.17
     1.042635          0.82
     1.041109          1.39
     1.040171          0.83
     1.039068          2.04
     1.034905          3.09
     1.027906          0.22
     1.027171          0.86
     1.027115          0.31
     1.025502          0.30
     1.024498          1.90
     1.024154          1.08
     1.021327          2.25
     1.019439          0.43
     1.019257          7.23
     1.018900          0.55
     1.017759          1.78
     1.014947          0.00
     1.014144          2.90
     1.011768          0.09
     1.010612          0.01
     1.007883          0.26
     1.007384          0.01
     1.007136          7.95
     1.006863          0.01
##############################################################################
###                            Comments                                    ###
##############################################################################
###   Diffraction pattern calculated by Match!. 
###   I/Ic calculated by Match!. 
###   Space group has been derived from given symmetry operations. 
##############################################################################


