##############################################################################
###               Crystal structure data exported by Match!                ###
##############################################################################
###                           Data published by:                           ###
###                                                                        ###
###               COD (Crystallography Open Database)
##############################################################################
data_1514236
_citation_journal_full    'Physica Status Solidi A - Applications and Materials'
_citation_journal_volume  '37'
_citation_page_first  'K47'
_citation_page_last   'K51'
_citation_year  '1976'
_citation_title  'Oxygen parameters and Debye-Waller factors in Mnx Cr3-x O4 spinels'
loop_
_publ_author_name
  'Jirak Z.'
  'Vratislav S.'
  'Zajicek J.'
_chemical_formula_sum  'Mn3 O4'
_chemical_name_mineral  'Hausmannite'
_chemical_name_common  'Manganese(II,III) oxide'
_symmetry_space_group_name_H-M 'I 41/a m d'
_space_group_IT_number 141
_space_group_crystal_system 'tetragonal'
loop_
_symmetry_equiv_pos_as_xyz
   'x, y, z'
   'x+0.5, y+0.5, z+0.5'
   '-x, -y+0.5, -z+0.25'
   '-x+0.5, -y, -z+0.75'
   '-y, x+0.5, z+0.25'
   '-y+0.5, x, z+0.75'
   '-x, -y, z'
   '-x+0.5, -y+0.5, z+0.5'
   'y, -x+0.5, z+0.25'
   'y+0.5, -x, z+0.75'
   'y, -x, -z'
   'y+0.5, -x+0.5, -z+0.5'
   '-y, x, -z'
   '-y+0.5, x+0.5, -z+0.5'
   'x, -y+0.5, -z+0.25'
   'x+0.5, -y, -z+0.75'
   '-x, y+0.5, -z+0.25'
   '-x+0.5, y, -z+0.75'
   'y, x, -z'
   'y+0.5, x+0.5, -z+0.5'
   '-y, -x, -z'
   '-y+0.5, -x+0.5, -z+0.5'
   'x, y+0.5, -z+0.25'
   'x+0.5, y, -z+0.75'
   '-x, y, z'
   '-x+0.5, y+0.5, z+0.5'
   'x, -y, z'
   'x+0.5, -y+0.5, z+0.5'
   '-y, -x+0.5, z+0.25'
   '-y+0.5, -x, z+0.75'
   'y, x+0.5, z+0.25'
   'y+0.5, x, z+0.75'
_cell_length_a        5.75900
_cell_length_b        5.75900
_cell_length_c        9.46000
_cell_angle_alpha    90.0000
_cell_angle_beta     90.0000
_cell_angle_gamma    90.0000
_cell_formula_units_Z 4
loop_
_atom_site_label
_atom_site_fract_x
_atom_site_fract_y
_atom_site_fract_z
_atom_site_occupancy
_atom_site_B_iso_or_equiv
mn      0.000   0.000   0.000    1.00000    0.100
mn      0.000   0.250   0.625    1.00000    0.100
o      0.000   0.220   0.384    1.00000    0.300
_cell_measurement_wavelength    1.541874
_cell_measurement_radiation   'x-rays'
_exptl_crystal_density_diffrn    4.844000
loop_
_pd_peak_d_spacing
_pd_peak_intensity
     4.919159        234.48
     3.086074        369.69
     2.879500        157.32
     2.765859        760.65
     2.485052       1000.00
     2.459579        141.57
     2.365000        183.38
     2.036114        206.26
     1.994723          2.13
     1.881322          0.11
     1.827592         64.85
     1.797483        249.85
     1.699536        103.50
     1.639720         86.87
     1.574967        325.29
     1.543037        570.80
     1.524787          7.94
     1.470310         27.75
     1.442924          0.35
     1.439750        211.88
     1.424891         12.25
     1.382929         32.80
     1.381782          7.91
     1.377356          0.39
     1.347521         57.48
     1.315688          0.79
     1.304745         17.78
     1.287752         15.66
     1.277086        110.60
     1.242526         53.16
     1.229790         48.86
     1.220490         12.56
     1.196688         63.08
     1.192010         31.63
     1.182500         49.90
     1.143356          5.67
     1.130963         28.29
     1.123718         82.63
     1.105057          0.07
     1.098549         24.23
     1.093856         11.50
     1.081887         84.62
     1.063172          0.12
     1.062651         39.12
     1.034029          3.01
     1.031693         58.83
     1.028691         12.39
     1.022561         26.58
     1.019177          0.06
     1.018057         59.79
     1.012763          0.18
##############################################################################
###                            Comments                                    ###
##############################################################################
###   Diffraction pattern calculated by Match!. 
###   I/Ic calculated by Match!. 
###   Space group has been derived from given symmetry operations. 
##############################################################################


