##############################################################################
###               Crystal structure data exported by Match!                ###
##############################################################################
###                           Data published by:                           ###
###                                                                        ###
###               COD (Crystallography Open Database)
##############################################################################
data_9006540
_citation_journal_full    'Physics and Chemistry of Minerals'
_citation_journal_volume  '25'
_citation_page_first  '130'
_citation_page_last   '137'
_citation_year  '1998'
_citation_title  'Pressure dependence of hydrogen bonding in metal deuteroxides: a neutron powder diffraction study of Mn(OD)2 and beta-Co(OD)2. Sample: P = 9.5 GPa'
loop_
_publ_author_name
  'Parise J. B.'
  'Theroux B.'
  'Li R.'
  'Loveday J. S.'
  'Marshall W. G.'
  'Klotz S.'
_chemical_formula_sum  'Co D2 O2'
_symmetry_space_group_name_H-M 'P -3 m 1'
_space_group_IT_number 164
_space_group_crystal_system 'trigonal (hexagonal axes)'
loop_
_symmetry_equiv_pos_as_xyz
   'x, y, z'
   '-y, x-y, z'
   '-x+y, -x, z'
   'x-y, -y, -z'
   '-x, -x+y, -z'
   'y, x, -z'
   '-x, -y, -z'
   'y, -x+y, -z'
   'x-y, x, -z'
   '-x+y, y, z'
   'x, x-y, z'
   '-y, -x, z'
_cell_length_a        3.05900
_cell_length_b        3.05900
_cell_length_c        4.28300
_cell_angle_alpha    90.0000
_cell_angle_beta     90.0000
_cell_angle_gamma   120.0000
loop_
_atom_site_label
_atom_site_fract_x
_atom_site_fract_y
_atom_site_fract_z
_atom_site_occupancy
_atom_site_B_iso_or_equiv
co      0.000   0.000   0.000    1.00000    0.866
o      0.333   0.667   0.247    1.00000    0.157
h      0.386   -0.386   0.457    0.33330    0.134
_cell_measurement_wavelength    1.541874
_cell_measurement_radiation   'x-rays'
_cell_measurement_pressure       9500000.000000
_exptl_crystal_density_diffrn    4.543000
loop_
_pd_peak_d_spacing
_pd_peak_intensity
     4.283000        722.91
     2.649172        318.06
     2.253018       1000.00
     2.141500         29.63
     1.665413        410.98
     1.529500        219.53
     1.440409        147.24
     1.427667         21.96
     1.324586         30.89
     1.265450        102.64
     1.256784        101.78
     1.244645         25.67
     1.126509         82.77
     1.070750         16.58
     1.043658         39.87
##############################################################################
###                            Comments                                    ###
##############################################################################
###   Diffraction pattern calculated by Match!. 
###   I/Ic calculated by Match!. 
##############################################################################


