##############################################################################
###               Crystal structure data exported by Match!                ###
##############################################################################
###                           Data published by:                           ###
###                                                                        ###
###               COD (Crystallography Open Database)
##############################################################################
data_2310812
_citation_journal_full    'Acta Crystallographica (1,1948-23,1967)'
_citation_journal_volume  '22'
_citation_page_first  '808'
_citation_page_last   '812'
_citation_year  '1967'
_citation_title  'Polytype families in zinc sulfide crystals'
loop_
_publ_author_name
  'Mardix S.'
  'Alexander E.'
  'Brafman O.'
  'Steinberger I.T.'
_chemical_formula_sum  'S Zn'
_chemical_name_common  'Zinc sulfide'
_symmetry_space_group_name_H-M 'P 63 m c'
_space_group_IT_number 186
_space_group_crystal_system 'hexagonal'
loop_
_symmetry_equiv_pos_as_xyz
   'x, y, z'
   'x-y, x, z+0.5'
   '-y, x-y, z'
   '-x, -y, z+0.5'
   '-x+y, -x, z'
   'y, -x+y, z+0.5'
   '-x+y, y, z'
   'x, x-y, z'
   '-y, -x, z'
   'y, x, z+0.5'
   'x-y, -y, z+0.5'
   '-x, -x+y, z+0.5'
_cell_length_a        3.82000
_cell_length_b        3.82000
_cell_length_c       50.07999
_cell_angle_alpha    90.0000
_cell_angle_beta     90.0000
_cell_angle_gamma   120.0000
_cell_formula_units_Z 16
loop_
_atom_site_label
_atom_site_fract_x
_atom_site_fract_y
_atom_site_fract_z
_atom_site_occupancy
_atom_site_B_iso_or_equiv
s      0.000   0.000   0.484    1.00000    1.000
s      0.000   0.000   0.109    1.00000    1.000
s      0.000   0.000   0.297    1.00000    1.000
s      0.333   0.667   0.172    1.00000    1.000
s      0.333   0.667   0.359    1.00000    1.000
zn      0.667   0.333   0.188    1.00000    1.000
s      0.667   0.333   0.234    1.00000    1.000
zn      0.000   0.000   0.250    1.00000    1.000
s      0.667   0.333   0.422    1.00000    1.000
zn      0.333   0.667   0.125    1.00000    1.000
s      0.667   0.333   0.047    1.00000    1.000
zn      0.000   0.000   0.438    1.00000    1.000
zn      0.667   0.333   0.375    1.00000    1.000
zn      0.000   0.000   0.063    1.00000    1.000
zn      0.667   0.333   0.000    1.00000    1.000
zn      0.333   0.667   0.313    1.00000    1.000
_cell_measurement_wavelength    1.541874
_cell_measurement_radiation   'x-rays'
_exptl_crystal_density_diffrn    4.091000
loop_
_pd_peak_d_spacing
_pd_peak_intensity
     3.308217         17.49
     3.301022         12.57
     3.279717         48.92
     3.245107         26.86
     3.198443        209.36
     3.141303       1000.00
     3.129999        719.70
     3.075456        714.95
     3.002729         39.82
     2.924901         56.97
     2.843614         17.26
     2.760324        153.42
     2.676273        140.59
     2.592485         26.08
     2.509776          3.52
     2.428777          7.14
     2.349954          2.08
     2.273638          6.48
     2.200047          2.61
     2.129308         11.35
     2.061480          7.06
     1.996565         63.28
     1.934527        353.71
     1.910000        795.31
     1.908612          0.00
     1.904468          0.00
     1.897619          0.00
     1.888155          0.00
     1.876191          0.00
     1.875299        302.59
     1.861874          0.00
     1.845368          0.00
     1.826858          0.00
     1.818794         20.64
     1.806538          0.00
     1.784612          0.00
     1.764911         36.71
     1.761282          0.00
     1.736751          0.00
     1.713541         13.52
     1.711216          0.00
     1.684865          0.00
     1.664567        129.17
     1.654108          1.83
     1.653207          1.31
     1.650511          5.18
     1.646047          2.91
     1.639859         23.45
     1.632003        116.55
     1.630412        508.91
     1.622553         87.80
     1.617875         97.71
     1.611595          5.19
     1.599222          8.01
     1.585538          2.63
     1.574654          0.00
     1.573349         11.21
     1.570652         25.34
     1.565000         19.29
     1.554677         24.28
     1.546620          0.00
     1.537728          4.58
     1.530875          0.80
     1.519920          0.63
     1.518634          0.00
     1.501365          1.31
     1.490791          0.00
     1.490343          0.84
     1.482173          0.40
     1.463175          0.00
     1.462451          1.28
     1.451648          0.14
     1.442297          0.55
     1.435857          0.00
     1.421807          2.51
     1.414688          0.30
     1.408898          0.00
     1.401069          1.64
     1.382348          0.00
     1.380162         15.44
     1.379368          0.11
     1.359162         90.48
     1.356249          0.00
     1.345594          0.54
     1.338137         81.32
     1.330634          0.00
     1.317145          5.80
     1.313282          0.42
     1.305529          0.00
     1.296242         10.82
     1.282350          4.83
     1.275476          4.15
     1.256926          0.00
     1.254888         41.44
     1.252720         34.49
     1.250388          1.18
     1.249999          0.85
     1.248832          3.38
     1.246896          1.90
     1.244199         15.40
     1.240757         76.95
     1.236590         58.08
     1.234515         32.53
     1.231718          3.44
     1.226167          5.29
     1.224321         37.44
     1.219967          1.72
     1.214388          3.87
     1.213147         16.47
     1.210537         37.55
     1.205740         15.91
     1.197782          3.11
     1.197086          3.22
     1.194535          0.28
     1.189308          0.44
     1.180355          0.97
     1.174977          0.30
     1.170961          0.30
     1.170950          7.22
     1.161163          1.00
     1.155733          0.05
     1.150998          0.44
     1.145854          3.36
     1.140503          2.08
     1.136819          0.11
     1.129715          1.39
     1.124476          0.00
     1.121742         40.83
     1.118669         13.53
     1.118246          0.04
     1.107399         81.68
     1.104337          0.00
     1.102739         94.74
     1.101671          0.00
     1.100023          0.23
     1.098562         39.75
     1.096116          0.00
     1.095938         75.42
     1.089868          0.00
     1.084734          0.00
     1.084316          5.54
     1.082158          0.19
     1.081702          0.00
     1.076265          5.95
     1.072564         10.63
     1.071748          0.00
     1.065657          0.00
     1.064654          2.36
     1.060711          4.19
     1.054804          0.56
     1.048781         43.06
     1.047514         17.84
     1.047093          0.00
     1.043333         14.98
     1.040077         88.90
     1.036800         34.65
     1.034137          0.76
     1.030740         20.46
     1.029033          0.00
     1.024792          4.22
     1.017296          0.00
     1.014330          1.85
     1.014222          0.15
     1.012776          0.31
     1.011463          0.00
##############################################################################
###                            Comments                                    ###
##############################################################################
###   Diffraction pattern calculated by Match!. 
###   I/Ic calculated by Match!. 
###   Space group has been derived from given symmetry operations. 
##############################################################################


