##############################################################################
###               Crystal structure data exported by Match!                ###
##############################################################################
###                           Data published by:                           ###
###                                                                        ###
###               COD (Crystallography Open Database)
##############################################################################
data_1528172
_citation_journal_full    'Tschermaks Mineralogische und Petrographische Mitteilungen (-1978)'
_citation_journal_volume  '8'
_citation_page_first  '614'
_citation_page_last   '624'
_citation_year  '1963'
_citation_title  'Strukturverfeinerung von Libethenit Cu2 (O H) (P O4)'
loop_
_publ_author_name
  'Walitzi E.M.'
_chemical_formula_sum  'Cu2 H O5 P'
_chemical_name_common  'Cu2 (P O4) (O H)'
_symmetry_space_group_name_H-M 'P n n m'
_space_group_IT_number 58
_space_group_crystal_system 'orthorhombic'
loop_
_symmetry_equiv_pos_as_xyz
   'x, y, z'
   '-x, -y, z'
   'x+0.5, -y+0.5, -z+0.5'
   '-x+0.5, y+0.5, -z+0.5'
   '-x, -y, -z'
   'x, y, -z'
   '-x+0.5, y+0.5, z+0.5'
   'x+0.5, -y+0.5, z+0.5'
_cell_length_a        8.11000
_cell_length_b        8.47000
_cell_length_c        5.92000
_cell_angle_alpha    90.0000
_cell_angle_beta     90.0000
_cell_angle_gamma    90.0000
_cell_formula_units_Z 4
loop_
_atom_site_label
_atom_site_fract_x
_atom_site_fract_y
_atom_site_fract_z
_atom_site_occupancy
_atom_site_B_iso_or_equiv
o      0.121   0.110   0.000    1.00000    1.000
cu      0.000   0.500   0.250    1.00000    1.000
cu      0.362   0.124   0.000    1.00000    1.000
o      0.154   0.083   0.500    1.00000    1.000
o      0.107   0.381   0.500    1.00000    1.000
o      0.343   0.263   0.286    1.00000    1.000
p      0.247   0.251   0.500    1.00000    1.000
_cell_measurement_wavelength    1.541874
_cell_measurement_radiation   'x-rays'
_exptl_crystal_density_diffrn    3.887000
loop_
_pd_peak_d_spacing
_pd_peak_intensity
     5.857771       1000.00
     4.852274        302.48
     4.781591        209.24
     4.235000          6.55
     4.163896         10.26
     4.055000          2.35
     3.753985        157.84
     3.657460         90.63
     3.170312          3.36
     3.111527          0.01
     2.960000         29.93
     2.928885        265.07
     2.666378         26.68
     2.641868         62.00
     2.625171         79.21
     2.575343         32.52
     2.548360         68.21
     2.459076         56.49
     2.431162         97.70
     2.426137         40.13
     2.390796        119.42
     2.361561         56.40
     2.324358        102.24
     2.317029          4.32
     2.300891          1.41
     2.278665         13.03
     2.157654          0.72
     2.126572          2.39
     2.117500          1.89
     2.081948         41.93
     2.048816          4.09
     2.027500          2.84
     1.981112        143.09
     1.971795          7.97
     1.952590         63.49
     1.942903        114.02
     1.936144         33.54
     1.921864         18.86
     1.917390         24.07
     1.876993          7.67
     1.870755         35.41
     1.870072          3.00
     1.854330          0.49
     1.828730         11.74
     1.824520         12.26
     1.805611         12.78
     1.789214          0.15
     1.747264         12.27
     1.746708          0.38
     1.736683          0.00
     1.722196        107.30
     1.684631          0.42
     1.672721         52.91
     1.666989          0.15
     1.658212          4.72
     1.646851          0.08
     1.641026          0.13
     1.636544         15.25
     1.629906          3.11
     1.628635         10.99
     1.617425         10.68
     1.604588         26.42
     1.596756         31.75
     1.593864         22.13
     1.593053          6.35
     1.586604         20.19
     1.586187         10.71
     1.585156         35.19
     1.566372         15.74
     1.564346          1.61
     1.563087          0.96
     1.555763         80.67
     1.538329         21.10
     1.514705         13.66
     1.511295          0.01
     1.502325          0.09
     1.491716          0.63
     1.480000         53.03
     1.467434          0.00
     1.464443         62.05
     1.452489          0.04
     1.446673         30.19
     1.439109          3.76
     1.435454         21.36
     1.434910         32.19
     1.421593          0.24
     1.421293          5.75
     1.411667          0.10
     1.406427         13.93
     1.402794         26.68
     1.397142          1.81
     1.395030          0.18
     1.394813         10.06
     1.390755          6.49
     1.390293          0.62
     1.387965          0.43
     1.382204         12.29
     1.376860         11.10
     1.371934          4.48
     1.368342          0.50
     1.360018          0.32
     1.353896          0.05
     1.351667          6.61
     1.348411         20.02
     1.341318          3.29
     1.334777          1.90
     1.333189         17.10
     1.320934         27.95
     1.312585         12.47
     1.302091          0.09
     1.300616          4.37
     1.299973          0.09
     1.294025          3.47
     1.291590          5.59
     1.287671          7.74
     1.287645          0.57
     1.285353          5.20
     1.283198          3.87
     1.274180         12.23
     1.273433          4.74
     1.270323          5.41
     1.269721          7.93
     1.269507          7.54
     1.264387          6.53
     1.258739          4.14
     1.258251          4.10
     1.258226          1.80
     1.253036          0.40
     1.251328          1.14
     1.247270          0.03
     1.241178          2.57
     1.239545         15.49
     1.229538          7.30
     1.225271          0.02
     1.224278          0.12
     1.219153          0.05
     1.216785          0.81
     1.215581          3.06
     1.213069          0.24
     1.201546          0.04
     1.199722          0.50
     1.196753         11.50
     1.195398          0.05
     1.194095          0.52
     1.190244          2.64
     1.185491          3.01
     1.183667          0.97
     1.180781          0.22
     1.180760          0.08
     1.179474         17.99
     1.175989          0.25
     1.173025          0.00
     1.172599          2.72
     1.171580          1.29
     1.171554          5.97
     1.162179          2.57
     1.160819          0.23
     1.160531          0.51
     1.159480          1.19
     1.158514          3.91
     1.152569          1.27
     1.150446          2.16
     1.149266          0.81
     1.147883          7.27
     1.145306          0.09
     1.139333          0.62
     1.137861          0.08
     1.137002          2.70
     1.136948          0.97
     1.136795          0.27
     1.129169          0.28
     1.127280          0.79
     1.126894          0.43
     1.126447          0.01
     1.118801          0.00
     1.117508          0.06
     1.109502          1.62
     1.106748          0.03
     1.105606          0.04
     1.104703          3.48
     1.104417          0.01
     1.104169          1.95
     1.100795          0.03
     1.098115          0.22
     1.097701          4.02
     1.091875          2.68
     1.089333          2.56
     1.085685          3.71
     1.085583          4.99
     1.084540          1.38
     1.084284          2.69
     1.082112          7.36
     1.079607          0.03
     1.078827         10.26
     1.078388          2.20
     1.078373          1.29
     1.075757          2.94
     1.074691          1.07
     1.071836          0.51
     1.070226          1.29
     1.064851          3.27
     1.063286         24.28
     1.058750         11.14
     1.058575          6.36
     1.056771          0.70
     1.056548          0.31
     1.054689          2.16
     1.054322          0.08
     1.050636          0.63
     1.049842          0.00
     1.048032          0.03
     1.045481          0.03
     1.040974         34.32
     1.040114          0.03
     1.039033          0.46
     1.037176          0.17
     1.034738         11.90
     1.033713          1.76
     1.031522          2.49
     1.030408         10.82
     1.025132          3.46
     1.024408          0.24
     1.023390          3.26
     1.023278          0.16
     1.021502          0.00
     1.019512          7.75
     1.016383          0.02
     1.015062          3.04
     1.013750          7.31
     1.013495          3.29
     1.012414          0.05
     1.009407          0.02
     1.007799         12.62
     1.007392          0.01
     1.006566          1.66
##############################################################################
###                            Comments                                    ###
##############################################################################
###   Diffraction pattern calculated by Match!. 
###   I/Ic calculated by Match!. 
##############################################################################


