##############################################################################
###               Crystal structure data exported by Match!                ###
##############################################################################
###                           Data published by:                           ###
###                                                                        ###
###               COD (Crystallography Open Database)
##############################################################################
data_1550598
_citation_journal_full    'Applied Clay Science'
_citation_journal_volume  '169'
_citation_page_first  '67'
_citation_page_last   '73'
_citation_year  '2019'
_citation_title  'First principles study of structural properties and electric fieldgradients in kaolinite'
loop_
_publ_author_name
  'Richard D.'
  'Rendtorff N. M.'
_chemical_formula_sum  'Al2 H4 O9 Si2'
_chemical_name_mineral  'Kaolinite'
_symmetry_space_group_name_H-M 'P 1'
_space_group_IT_number 1
_space_group_crystal_system 'triclinic'
loop_
_symmetry_equiv_pos_as_xyz
   'x, y, z'
_cell_length_a        5.17375
_cell_length_b        8.98502
_cell_length_c        7.35224
_cell_angle_alpha    91.6843
_cell_angle_beta    105.1279
_cell_angle_gamma    89.7549
_cell_formula_units_Z 2
loop_
_atom_site_label
_atom_site_fract_x
_atom_site_fract_y
_atom_site_fract_z
_atom_site_occupancy
_atom_site_B_iso_or_equiv
al      0.297   0.494   0.479    1.00000    1.000
al      0.797   0.994   0.479    1.00000    1.000
al      0.790   0.329   0.476    1.00000    1.000
al      0.290   0.829   0.476    1.00000    1.000
si      0.993   0.338   0.089    1.00000    1.000
si      0.493   0.838   0.089    1.00000    1.000
si      0.507   0.167   0.091    1.00000    1.000
si      0.007   0.667   0.091    1.00000    1.000
o      0.047   0.353   0.315    1.00000    1.000
o      0.547   0.853   0.315    1.00000    1.000
o      0.118   0.662   0.316    1.00000    1.000
o      0.618   0.162   0.316    1.00000    1.000
o      -0.001   0.500   -0.007    1.00000    1.000
o      0.499   -0.000   -0.007    1.00000    1.000
o      0.202   0.229   0.017    1.00000    1.000
o      0.702   0.729   0.017    1.00000    1.000
o      0.195   0.767   -0.006    1.00000    1.000
o      0.695   0.267   -0.006    1.00000    1.000
o      0.045   0.968   0.324    1.00000    1.000
o      0.545   0.468   0.324    1.00000    1.000
o      0.956   0.166   0.606    1.00000    1.000
o      0.456   0.666   0.606    1.00000    1.000
o      0.034   0.471   0.606    1.00000    1.000
o      0.534   0.971   0.606    1.00000    1.000
o      0.036   0.856   0.612    1.00000    1.000
o      0.536   0.356   0.612    1.00000    1.000
h      0.139   0.062   0.325    1.00000    1.000
h      0.639   0.562   0.325    1.00000    1.000
h      0.058   0.172   0.738    1.00000    1.000
h      0.558   0.672   0.738    1.00000    1.000
h      0.041   0.502   0.735    1.00000    1.000
h      0.541   0.002   0.735    1.00000    1.000
h      0.548   0.315   0.735    1.00000    1.000
h      0.048   0.815   0.735    1.00000    1.000
_cell_measurement_wavelength    1.541874
_cell_measurement_radiation   'x-rays'
_exptl_crystal_density_diffrn    2.599000
loop_
_pd_peak_d_spacing
_pd_peak_intensity
     7.094407       1000.00
     4.490541        251.45
     4.371428        701.42
     4.358391          7.25
     4.193589        690.96
     4.138450        290.03
     3.845564        470.11
     3.745069        239.81
     3.547203        766.52
     3.409779         29.66
     3.367898        288.38
     3.149407         48.12
     3.098140         84.54
     2.824051          7.55
     2.744693         94.88
     2.575426         91.82
     2.571733        107.46
     2.563771         83.77
     2.543950        155.80
     2.507097        158.40
     2.504493         59.22
     2.497213        164.63
     2.473719         26.90
     2.364802         89.18
     2.351081        300.98
     2.337372        300.11
     2.328022         29.41
     2.297203        357.70
     2.295877         27.05
     2.255110         42.60
     2.245271          4.03
     2.240865          0.07
     2.227352         13.55
     2.199373         34.71
     2.185714          9.05
     2.183810         33.81
     2.179195          9.81
     2.158892          5.73
     2.122811         10.63
     2.118131         28.68
     2.096795          5.58
     2.069225         15.78
     2.067576          6.47
     1.996833        107.92
     1.981784        103.76
     1.973298          4.89
     1.954619         40.43
     1.936767         71.47
     1.922782         40.76
     1.915370          0.31
     1.895209          8.33
     1.894934         32.01
     1.872535         36.83
     1.843962         28.34
     1.839607         52.71
     1.829549         25.22
     1.809902         16.01
     1.802041          9.49
     1.781784          0.62
     1.773602         43.04
     1.704889         50.76
     1.698320         23.91
     1.694111          3.70
     1.692125          1.32
     1.691931         12.99
     1.688340         28.89
     1.687039         11.30
     1.686571          8.37
     1.683949          0.04
     1.672561         42.88
     1.669022         14.70
     1.666724         16.02
     1.666358          2.97
     1.665710        104.82
     1.659934         29.88
     1.653709         41.85
     1.653102        101.56
     1.652614          9.48
     1.637955         18.07
     1.636985         10.79
     1.635892          9.60
     1.633332          8.45
     1.623816         41.69
     1.614958        100.11
     1.610859         16.18
     1.604959         11.78
     1.601255          4.19
     1.597933         10.30
     1.580975         71.48
     1.575011          6.88
     1.574704          0.50
     1.564684          4.73
     1.556089         13.65
     1.549070         43.67
     1.548278         16.88
     1.540817         46.43
     1.539856          1.82
     1.533080          2.31
     1.529337         51.40
     1.519447          6.60
     1.514680          8.09
     1.509873          3.66
     1.508623          7.55
     1.496847         98.05
     1.496184         99.17
     1.492388          5.38
     1.491692         99.72
     1.476127          7.69
     1.475429         10.88
     1.473346          8.62
     1.462416         19.01
     1.460288         18.12
     1.457143         12.36
     1.457095         15.19
     1.456929          0.55
     1.456093          6.59
     1.456013         19.44
     1.452797         15.66
     1.443388          3.15
     1.438453         41.98
     1.430753          7.70
     1.418881         14.39
     1.417524          3.17
     1.412025         22.44
     1.406184         11.60
     1.400595          9.68
     1.398732          4.34
     1.397863         19.40
     1.393791         19.33
     1.390789          7.33
     1.390036          9.14
     1.379483         12.00
     1.372347         32.41
     1.370668         13.40
     1.364844          8.32
     1.364481          2.75
     1.362407          4.04
     1.360838          9.91
     1.360057          9.03
     1.356605          4.99
     1.354173          2.18
     1.347427         25.82
     1.341707          1.40
     1.338140          4.23
     1.334624         76.51
     1.326945          1.70
     1.321944          3.29
     1.304527          1.14
     1.304041         70.93
     1.300342          0.11
     1.298101         28.46
     1.295214         66.18
     1.290221         22.65
     1.288445         27.46
     1.287713         12.33
     1.286823          5.03
     1.285867         13.80
     1.281886         11.37
     1.281855          4.27
     1.276573          3.18
     1.271975         27.26
     1.271952          4.27
     1.266796          8.09
     1.263280          5.08
     1.262280          0.42
     1.256583          6.82
     1.253548         36.83
     1.252247          9.01
     1.251754          0.07
     1.248606         32.08
     1.248356          6.84
     1.246611         14.44
     1.245938          9.99
     1.245303          0.82
     1.243718         14.24
     1.243059          6.24
     1.242856         24.59
     1.241678         13.92
     1.241617          2.49
     1.241612          2.99
     1.240129          8.14
     1.239030         16.33
     1.237919          3.53
     1.237409          1.33
     1.236860          2.78
     1.235606         18.26
     1.235532          8.43
     1.232732          9.26
     1.227754         14.38
     1.223159          5.23
     1.222896         15.80
     1.218879          4.70
     1.218049          4.65
     1.217482          6.54
     1.215640          7.68
     1.211465          9.11
     1.210505         10.78
     1.208477          4.65
     1.207523          1.81
     1.205765          3.50
     1.204896          7.72
     1.204111          4.84
     1.204062         16.96
     1.202987          5.50
     1.201879          2.74
     1.197508          2.37
     1.196199         13.68
     1.190516          2.75
     1.188726          0.51
     1.188646         13.81
     1.187311          5.33
     1.185296          4.68
     1.183894          2.24
     1.182401         15.00
     1.178332          6.82
     1.175541          1.52
     1.174222          9.63
     1.172132          4.32
     1.171669          6.58
     1.168686          0.90
     1.165817          4.18
     1.165395         12.66
     1.164011          2.35
     1.161100          1.25
     1.160791          4.19
     1.160483          2.57
     1.157773          0.66
     1.154012          8.74
     1.151765          4.60
     1.148602          1.56
     1.147938          8.38
     1.146682          5.03
     1.145213          1.70
     1.144076          4.33
     1.142043          1.60
     1.141733          1.48
     1.139248          2.30
     1.137464          4.91
     1.136593          5.21
     1.135268          0.80
     1.133370          1.46
     1.132759          4.06
     1.127744          2.74
     1.127555         21.54
     1.122635          3.80
     1.122633          2.73
     1.121800          0.51
     1.121333          1.35
     1.120948          2.39
     1.120432          2.89
     1.118334          3.38
     1.117743          2.88
     1.116701          3.66
     1.114989          0.33
     1.113886          3.20
##############################################################################
###                            Comments                                    ###
##############################################################################
###   Diffraction pattern calculated by Match!. 
###   I/Ic calculated by Match!. 
###   Space group has been derived from given symmetry operations. 
##############################################################################


