##############################################################################
###               Crystal structure data exported by Match!                ###
##############################################################################
###                           Data published by:                           ###
###                                                                        ###
###               COD (Crystallography Open Database)
##############################################################################
data_2106355
_citation_journal_full    'Acta Crystallographica B (24,1968-38,1982)'
_citation_journal_volume  '35'
_citation_page_first  '550'
_citation_page_last   '555'
_citation_year  '1979'
_citation_title  'Structure determination of alpha-quartz up to 68*10exp8 Pa'
loop_
_publ_author_name
  'd?Amour H.'
  'Denner W.'
  'Schulz H.'
_chemical_formula_sum  'O2 Si'
_chemical_name_common  'Silica'
_symmetry_space_group_name_H-M 'P 32 2 1'
_space_group_IT_number 154
_space_group_crystal_system 'trigonal (hexagonal axes)'
loop_
_symmetry_equiv_pos_as_xyz
   'x, y, z'
   '-y, x-y, z+0.66667'
   '-x+y, -x, z+0.33333'
   'x-y, -y, -z+0.33333'
   '-x, -x+y, -z+0.66667'
   'y, x, -z'
_cell_length_a        4.76500
_cell_length_b        4.76500
_cell_length_c        5.29600
_cell_angle_alpha    90.0000
_cell_angle_beta     90.0000
_cell_angle_gamma   120.0000
_cell_formula_units_Z 3
loop_
_atom_site_label
_atom_site_fract_x
_atom_site_fract_y
_atom_site_fract_z
_atom_site_occupancy
_atom_site_B_iso_or_equiv
o      0.409   0.295   0.767    1.00000    1.000
si      0.456   0.000   0.667    1.00000    1.000
_cell_measurement_wavelength    1.541874
_cell_measurement_radiation   'x-rays'
_exptl_crystal_density_diffrn    2.874000
loop_
_pd_peak_d_spacing
_pd_peak_intensity
     4.126611        227.29
     3.255114       1000.00
     2.382500        118.86
     2.228624        128.40
     2.172760         56.98
     2.063305         82.79
     1.922550         21.61
     1.771131         81.01
     1.765333         11.66
     1.627557         65.41
     1.623055         20.70
     1.559712          1.83
     1.496176        101.31
     1.418399         23.47
     1.375537          0.01
     1.343911         67.75
     1.341373         54.64
     1.331363         66.89
     1.260700         39.54
     1.220668         30.26
     1.191250          6.35
     1.168853         33.24
     1.162212         13.31
     1.157304         17.86
     1.144516         33.54
     1.118691          4.62
     1.114312          1.97
     1.086380          0.87
     1.085038          1.53
     1.050584         27.87
     1.031653          1.20
     1.025943         11.29
     1.012619         12.26
     1.009368         12.25
##############################################################################
###                            Comments                                    ###
##############################################################################
###   Diffraction pattern calculated by Match!. 
###   I/Ic calculated by Match!. 
###   Space group has been derived from given symmetry operations. 
##############################################################################


