##############################################################################
###               Crystal structure data exported by Match!                ###
##############################################################################
###                           Data published by:                           ###
###                                                                        ###
###               COD (Crystallography Open Database)
##############################################################################
data_2012673
_citation_journal_full    'Acta Crystallographica Section C'
_citation_journal_volume  '58(5)'
_citation_page_first  'i55'
_citation_page_last   'i60'
_citation_year  '2002'
_citation_title  'Copper(II) hypophosphite: the \a- and \b-forms at 270 and 100K, and the \g-form at 270K'
loop_
_publ_author_name
  'Naumov Dmitry Yu.'
  'Naumova Marina I.'
  'Kuratieva Natalia V.'
  'Boldyreva Elena V.'
  'Howard Judith A. K.'
_chemical_formula_sum  'Cu H4 O4 P2'
_chemical_name_common  'Copper(II) Hypophosphite'
_symmetry_space_group_name_H-M 'P b c a'
_space_group_IT_number 61
_space_group_crystal_system 'orthorhombic'
loop_
_symmetry_equiv_pos_as_xyz
   'x, y, z'
   '-x+0.5, -y, z+0.5'
   'x+0.5, -y+0.5, -z'
   '-x, y+0.5, -z+0.5'
   '-x, -y, -z'
   'x+0.5, y, -z+0.5'
   '-x+0.5, y+0.5, z'
   'x, -y+0.5, z+0.5'
_cell_length_a        5.32590
_cell_length_b        6.27200
_cell_length_c       14.25900
_cell_angle_alpha    90.0000
_cell_angle_beta     90.0000
_cell_angle_gamma    90.0000
_cell_formula_units_Z 4
loop_
_atom_site_label
_atom_site_fract_x
_atom_site_fract_y
_atom_site_fract_z
_atom_site_occupancy
_atom_site_B_iso_or_equiv
cu      0.000   0.000   0.000    1.00000    1.197
p      0.454   0.110   0.131    1.00000    1.225
h      0.471   0.214   0.209    1.00000    1.816
h      0.571   -0.053   0.145    1.00000    1.183
o      0.177   0.068   0.116    1.00000    1.443
o      0.600   0.220   0.053    1.00000    1.372
_cell_measurement_wavelength    1.541874
_cell_measurement_radiation   'x-rays'
_cell_measurement_temperature    270.000000
_exptl_crystal_density_diffrn    2.697000
_exptl_crystal_colour            'Blue'
loop_
_pd_peak_d_spacing
_pd_peak_intensity
     7.129500       1000.00
     4.266810         94.53
     3.904536        180.62
     3.564750         10.63
     3.527854        224.58
     3.136000         79.67
     3.086941        581.72
     3.062801        130.29
     2.962414          6.05
     2.870573         57.10
     2.678654         11.26
     2.662950        133.71
     2.655074         19.60
     2.617583         82.95
     2.526906         35.02
     2.494617         75.55
     2.451168          5.02
     2.415734          0.01
     2.376500         25.45
     2.354559          9.80
     2.349187         24.86
     2.333580        182.53
     2.317996         19.42
     2.178531          1.53
     2.170244         35.27
     2.153496          9.07
     2.133405         15.83
     2.109863         19.97
     2.050935          0.40
     2.029852         26.41
     2.019759          5.15
     2.009592         12.54
     1.961551         10.32
     1.952268         55.23
     1.928220        145.62
     1.894074         39.18
     1.877411          5.94
     1.866744          5.57
     1.858884          2.28
     1.820664         15.41
     1.800979         29.38
     1.784580          0.20
     1.782375         41.22
     1.773096         35.00
     1.763927         44.70
     1.722695          2.13
     1.708258          7.55
     1.708129          6.16
     1.706226          3.13
     1.696063          8.38
     1.690235          0.96
     1.661175          7.70
     1.653717          7.00
     1.644425          3.56
     1.633597          1.15
     1.632011          3.14
     1.626634          4.86
     1.607526         80.18
     1.607475         17.57
     1.602355          1.15
     1.589136          3.59
     1.568000          1.51
     1.566638          0.02
     1.558605          1.81
     1.554044          0.08
     1.549579         42.29
     1.543470         36.08
     1.540459          0.61
     1.535935          2.27
     1.531401         21.39
     1.509881          1.69
     1.505671         16.30
     1.495866          5.31
     1.493205          0.15
     1.489063          1.01
     1.487882          0.00
     1.481207         22.52
     1.475922         19.71
     1.471767          3.29
     1.469257          7.49
     1.465415         52.86
     1.441553          5.14
     1.437843          0.63
     1.435287         38.06
     1.434067          0.72
     1.425900          1.30
     1.424560          3.74
     1.422270          7.72
     1.417524          1.91
     1.414112          6.96
     1.407137         28.63
     1.387054          5.87
     1.385845          0.30
     1.377389          2.60
     1.374006          3.80
     1.366756          2.99
     1.358399          1.64
     1.352258          0.09
     1.351167          1.48
     1.347182         17.42
     1.345330          2.61
     1.345141          0.00
     1.339327         18.71
     1.331475          3.54
     1.330584          0.86
     1.330444          1.82
     1.329498         11.51
     1.327537         17.86
     1.314405          0.40
     1.308883          3.14
     1.308846          3.55
     1.308792          3.62
     1.302450          1.55
     1.301512          8.54
     1.299672          0.05
     1.298022         12.26
     1.297050          5.49
     1.295282          0.59
     1.281246          0.50
     1.279525          1.33
     1.270978          0.24
     1.265143          0.13
     1.263453         33.70
     1.261108          0.37
     1.257821          0.01
     1.257036          1.46
     1.256141          4.24
     1.248938          4.32
     1.247308          2.52
     1.242517          2.43
     1.234851         29.46
     1.233265          0.00
     1.232525          0.23
     1.230940          4.66
     1.228656         12.39
     1.225584          8.05
     1.223352          5.18
     1.222574          8.96
     1.221082          0.37
     1.221049          0.38
     1.216539         16.46
     1.210024          0.12
     1.208614          0.03
     1.207867         14.02
     1.203470          0.97
     1.197964          1.38
     1.188250          0.27
     1.186765          0.06
     1.184738          4.34
     1.182593          0.68
     1.177279          0.04
     1.175951          4.71
     1.174594          5.52
     1.171262          1.03
     1.168763          0.40
     1.167417          0.31
     1.166790          7.55
     1.161614          1.92
     1.161588          6.11
     1.159736          0.23
     1.159585          5.21
     1.158998          8.91
     1.155111          0.24
     1.150202          3.20
     1.149530          0.12
     1.145902          0.02
     1.142165          0.20
     1.140945          0.38
     1.140875          0.02
     1.140405          1.76
     1.134800          1.18
     1.131223          0.85
     1.127175         11.23
     1.126005          1.00
     1.125979          0.00
     1.123058          5.45
     1.122440          2.50
     1.120692          0.20
     1.119591          0.35
     1.116141          0.12
     1.114473          0.42
     1.111710          1.56
     1.111160          2.75
     1.109379          0.09
     1.106096          0.98
     1.103776          1.13
     1.097317          2.62
     1.094647          1.62
     1.092963          0.06
     1.092505          0.11
     1.090846          0.23
     1.089265          5.49
     1.087738          0.01
     1.086584          0.09
     1.086037          1.99
     1.085122          0.39
     1.081331          0.65
     1.078852          1.31
     1.077794          0.02
     1.077300          2.03
     1.076748          0.36
     1.071158          6.26
     1.069237          0.00
     1.066702          6.77
     1.058880          6.82
     1.054931          3.19
     1.054388          0.05
     1.053487          1.46
     1.053459          1.16
     1.051602          3.78
     1.050159          0.22
     1.047818          0.01
     1.047307          7.54
     1.047265         19.62
     1.045333          0.01
     1.044950          0.97
     1.042536          0.39
     1.038933          0.26
     1.035345          2.76
     1.034826          0.32
     1.034275          2.15
     1.032611         11.48
     1.028980          6.36
     1.028070          0.20
     1.025467          5.59
     1.025413          4.87
     1.024041          0.08
     1.023118          0.20
     1.021831         13.10
     1.020934          0.04
     1.020591          0.10
     1.018500          1.98
     1.018011          0.32
     1.017962          0.03
     1.016319          0.37
     1.015388          0.00
     1.015307          0.55
     1.014926          0.54
     1.014151          0.31
     1.014050          0.01
     1.012365          0.05
     1.009879          3.19
     1.007342          0.61
     1.007305          0.00
##############################################################################
###                            Comments                                    ###
##############################################################################
###   Diffraction pattern calculated by Match!. 
###   I/Ic calculated by Match!. 
##############################################################################


