##############################################################################
###               Crystal structure data exported by Match!                ###
##############################################################################
###                           Data published by:                           ###
###                                                                        ###
###               COD (Crystallography Open Database)
##############################################################################
data_9013727
_citation_journal_full    'American Mineralogist'
_citation_journal_volume  '95'
_citation_page_first  '348'
_citation_page_last   '361'
_citation_year  '2010'
_citation_title  'Factors responsible for crystal-chemical variations in the solid solutionsfrom illite to aluminoceladonite and from glauconite to celadoniteLocality: Taiheizan, Akita Prefecture, JapanSample Name: TAIH'
loop_
_publ_author_name
  'Drits V. A.'
  'Zviagina B. B.'
  'McCarty D. K.'
  'Salyn A. L.'
_chemical_formula_sum  'Al2 H2 K O12 Si4'
_chemical_name_mineral  'Celadonite'
_symmetry_space_group_name_H-M 'C 1 2/m 1'
_space_group_IT_number 12
_space_group_crystal_system 'monoclinic'
loop_
_symmetry_equiv_pos_as_xyz
   'x, y, z'
   'x+0.5, y+0.5, z'
   '-x, y, -z'
   '-x+0.5, y+0.5, -z'
   '-x, -y, -z'
   '-x+0.5, -y+0.5, -z'
   'x, -y, z'
   'x+0.5, -y+0.5, z'
_cell_length_a        5.22700
_cell_length_b        9.05200
_cell_length_c       10.15300
_cell_angle_alpha    90.0000
_cell_angle_beta    100.5300
_cell_angle_gamma    90.0000
loop_
_atom_site_label
_atom_site_fract_x
_atom_site_fract_y
_atom_site_fract_z
_atom_site_occupancy
_atom_site_B_iso_or_equiv
k      0.000   0.500   0.500    1.00000    1.000
al      0.500   0.167   0.000    1.00000    1.000
si      0.421   0.332   0.274    1.00000    1.000
o      0.362   0.324   0.112    1.00000    1.000
o      0.471   0.500   0.332    1.00000    1.000
o      0.684   0.241   0.336    1.00000    1.000
o      0.408   0.000   0.111    1.00000    1.000
_cell_measurement_wavelength    1.541874
_cell_measurement_radiation   'x-rays'
_exptl_crystal_density_diffrn    2.809000
loop_
_pd_peak_d_spacing
_pd_peak_intensity
     9.982017        208.67
     4.991008        201.10
     4.526000        458.46
     4.469007          5.76
     4.344503        343.46
     4.122072        189.30
     3.856687         39.23
     3.628240       1000.00
     3.352738        374.11
     3.327339        338.92
     3.093966        900.62
     2.898621        294.79
     2.680844        410.34
     2.605997        156.66
     2.601979        359.57
     2.576713        473.10
     2.569487        253.96
     2.495504         19.17
     2.486285         53.08
     2.476075         36.72
     2.462836         84.83
     2.400091        303.73
     2.385354        181.27
     2.343093         58.57
     2.263000         35.81
     2.258390        106.16
     2.241471         10.38
     2.234503         82.69
     2.224428         18.94
     2.206995        136.91
     2.185334          0.91
     2.172251         43.25
     2.148412        221.23
     2.131484        116.97
     2.110219         98.02
     2.061036          5.91
     2.044876          0.75
     2.008640         37.77
     1.996403        194.43
     1.980143         49.26
     1.963413        123.45
     1.941305         15.20
     1.928344          8.76
     1.890564          8.47
     1.874690          1.04
     1.871228          0.49
     1.826599          1.29
     1.814120         51.07
     1.737847         29.69
     1.731993          1.84
     1.723632          2.66
     1.723161         37.03
     1.710822         33.94
     1.708673          2.87
     1.707539          0.77
     1.700339         22.65
     1.698258          1.39
     1.689368         10.83
     1.683119         14.70
     1.676369         44.85
     1.670441          0.16
     1.666359         14.09
     1.663669         12.27
     1.659811        249.73
     1.647070          8.44
     1.646515         71.36
     1.646124        112.39
     1.641734         62.32
     1.623936         63.64
     1.622363          0.67
     1.612887          8.59
     1.592517         94.52
     1.586370         86.25
     1.561518          1.82
     1.558092         17.72
     1.551598         37.14
     1.546983         10.75
     1.529868         72.88
     1.528416         36.85
     1.517538        128.77
     1.514645         61.73
     1.508773        251.03
     1.508667        128.34
     1.497097         20.13
     1.493996         12.72
     1.491725         18.53
     1.490204          2.62
     1.489669         18.60
     1.483936         29.54
     1.483033          5.21
     1.464502          7.08
     1.453071          3.12
     1.450879         15.09
     1.449311          3.36
     1.448168          1.06
     1.444132          0.05
     1.443667          6.94
     1.440315          0.23
     1.426002         12.71
     1.425721          8.52
     1.418446          2.22
     1.403798          1.00
     1.383517         67.24
     1.379204          2.01
     1.378319          5.15
     1.374024          0.18
     1.370957          0.06
     1.369060          0.02
     1.360092         24.34
     1.356466         62.01
     1.346256        118.60
     1.340422         29.35
     1.338402          3.66
     1.331194          9.58
     1.306278          0.00
     1.305655         81.14
     1.304780         39.38
     1.302998         44.83
     1.302336         19.16
     1.300990         93.23
     1.300003          2.28
     1.299364         72.46
     1.296784         32.99
     1.292867         10.83
     1.291991          0.72
     1.291070         36.39
     1.288356          0.03
     1.285562         37.84
     1.284744          0.03
     1.279660         17.87
     1.275047         49.48
     1.267420          0.30
     1.260383          2.99
     1.255348         15.42
     1.254539         12.18
     1.254049          0.00
     1.253722          0.11
     1.252141         16.43
     1.251575         28.70
     1.251188          2.15
     1.247752         22.07
     1.246798          6.08
     1.245735         15.56
     1.244279          4.57
     1.243143         27.46
     1.238038          0.09
     1.237462          0.52
     1.235916          7.58
     1.231418          0.04
     1.231388         18.80
     1.229501          3.38
     1.229270         25.63
     1.222713          6.97
     1.219787         23.18
     1.215084          2.05
     1.212884          1.14
     1.209413         21.55
     1.206453         35.00
     1.204429          4.18
     1.203637         22.32
     1.203625         26.91
     1.202878          0.24
     1.201071         27.31
     1.200045          0.01
     1.199403          0.03
     1.198048         16.75
     1.194168          4.55
     1.192677          0.85
     1.191132         15.04
     1.186134          2.73
     1.183244          4.32
     1.177715         11.96
     1.175339          6.18
     1.171547          6.41
     1.171380         19.90
     1.168005          3.78
     1.163462          7.59
     1.160141          1.75
     1.157001         17.15
     1.156573          1.82
     1.155179          2.54
     1.153306          2.77
     1.144770          8.35
     1.141126          0.85
     1.139261          5.08
     1.131500          0.01
     1.131060          1.68
     1.130354         10.00
     1.129195          0.02
     1.128764          5.11
     1.125143          0.87
     1.124300         11.55
     1.123809          3.36
     1.123121          0.82
     1.122582          1.98
     1.120736         34.75
     1.118828          1.19
     1.117790          0.02
     1.117579          1.23
     1.117252          2.07
     1.113904         13.09
     1.112214         58.87
     1.112204          1.09
     1.109113          0.89
     1.103497          1.54
     1.101430         21.67
     1.100996          0.58
     1.097315          1.06
     1.093610          2.66
     1.092667          1.19
     1.091312          4.16
     1.089439          6.07
     1.087879          0.01
     1.086563          8.90
     1.086126          0.00
     1.083920          3.47
     1.077240          1.02
     1.074206         54.33
     1.071253          0.44
     1.069022          1.08
     1.066644          0.44
     1.065742         23.03
     1.063219          1.53
     1.063019          1.60
     1.058823          0.17
     1.056149         33.61
     1.055198          0.63
     1.055109          1.18
     1.049570         17.40
     1.048562          0.15
     1.046579          1.39
     1.041477         16.62
     1.041214          0.08
     1.038562          0.31
     1.038370          2.19
     1.038213          0.58
     1.037913          3.31
     1.037889          1.32
     1.037371          1.19
     1.036328         20.49
     1.035541          0.22
     1.035139          0.12
     1.033516          0.37
     1.032383          6.31
     1.032080          3.14
     1.031322         19.43
     1.030518          3.35
     1.030164          2.03
     1.029136          0.71
     1.027639          0.82
     1.023599          1.50
     1.022438          8.20
     1.022315         14.00
     1.021233          6.35
     1.017974          5.70
     1.015235          3.68
     1.013499          0.00
     1.011742         18.94
     1.011730          0.56
     1.010097         13.65
     1.008905          3.19
     1.008697         13.17
##############################################################################
###                            Comments                                    ###
##############################################################################
###   Diffraction pattern calculated by Match!. 
###   I/Ic calculated by Match!. 
###   Space group has been derived from given symmetry operations. 
##############################################################################


