##############################################################################
###               Crystal structure data exported by Match!                ###
##############################################################################
###                           Data published by:                           ###
###                                                                        ###
###               COD (Crystallography Open Database)
##############################################################################
data_9012124
_citation_journal_full    'Journal of Solid State Chemistry'
_citation_journal_volume  '13'
_citation_page_first  '252'
_citation_page_last   '257'
_citation_year  '1975'
_citation_title  'Oxydes de plomb. I. structure cristalline du minium Pb3O4, a temperature ambiante (293 K) Locality: synthetic Sample: T = 293 K'
loop_
_publ_author_name
  'Gavarri J. R.'
  'Weigel D.'
_chemical_formula_sum  'O4 Pb3'
_chemical_name_mineral  'Minium'
_symmetry_space_group_name_H-M 'P 42/m b c'
_space_group_IT_number 135
_space_group_crystal_system 'tetragonal'
loop_
_symmetry_equiv_pos_as_xyz
   'x, y, z'
   '-y, x, z+0.5'
   '-x, -y, z'
   'y, -x, z+0.5'
   'x+0.5, -y+0.5, -z'
   '-x+0.5, y+0.5, -z'
   'y+0.5, x+0.5, -z+0.5'
   '-y+0.5, -x+0.5, -z+0.5'
   '-x, -y, -z'
   'y, -x, -z+0.5'
   'x, y, -z'
   '-y, x, -z+0.5'
   '-x+0.5, y+0.5, z'
   'x+0.5, -y+0.5, z'
   '-y+0.5, -x+0.5, z+0.5'
   'y+0.5, x+0.5, z+0.5'
_cell_length_a        8.81100
_cell_length_b        8.81100
_cell_length_c        6.56300
_cell_angle_alpha    90.0000
_cell_angle_beta     90.0000
_cell_angle_gamma    90.0000
loop_
_atom_site_label
_atom_site_fract_x
_atom_site_fract_y
_atom_site_fract_z
_atom_site_occupancy
_atom_site_B_iso_or_equiv
pb      0.000   0.500   0.250    1.00000    1.000
pb      0.140   0.163   0.000    1.00000    1.000
o      0.671   0.171   0.250    1.00000    1.000
o      0.096   0.637   0.000    1.00000    1.000
_cell_measurement_wavelength    1.541874
_cell_measurement_radiation   'x-rays'
_cell_measurement_temperature    293.000000
_exptl_crystal_density_diffrn    8.938000
loop_
_pd_peak_d_spacing
_pd_peak_intensity
     6.230318        108.26
     4.405500         15.55
     3.940399          9.68
     3.657819         27.05
     3.378274       1000.00
     3.281500         50.82
     3.115159        130.81
     2.903401        380.49
     2.786283        493.54
     2.631673        264.97
     2.564723          3.84
     2.521600          0.91
     2.443732         21.48
     2.290126         42.14
     2.259267         55.64
     2.202750         16.20
     2.136981          1.68
     2.123934          1.15
     2.088268          6.34
     2.076773          8.94
     2.031977        101.33
     1.970199        111.82
     1.959961         19.00
     1.959385          4.36
     1.912662        193.10
     1.887006          9.96
     1.828910        239.93
     1.790739         10.96
     1.762200          4.47
     1.754862        257.46
     1.727979         23.22
     1.720669          1.22
     1.701918         12.09
     1.689137         14.32
     1.671030          8.20
     1.640750         66.31
     1.636162          0.22
     1.629952         13.47
     1.587571        125.43
     1.586653          4.19
     1.557579         49.31
     1.552506          5.12
     1.552219          2.34
     1.537576          1.74
     1.528952         54.69
     1.528679         37.48
     1.514686          1.05
     1.511074         19.30
     1.472547         12.53
     1.468500         57.04
     1.464245          0.15
     1.464005          3.95
     1.451700         23.02
     1.448519          4.71
     1.433064          4.33
     1.414477         20.26
     1.413828        113.63
     1.407115          0.28
     1.393141          3.72
     1.376047          1.30
     1.372545         17.98
     1.372347          5.37
     1.362777          0.10
     1.362196          5.14
     1.355998          3.86
     1.346763         31.66
     1.340403          1.77
     1.325157          7.68
     1.315837          4.65
     1.313466          0.05
     1.310247         62.02
     1.301404          0.89
     1.287927          0.52
     1.287437          3.84
     1.282361         36.81
     1.268992          4.49
     1.260800         45.04
     1.257952          0.84
     1.246064          8.11
     1.245324         41.30
     1.243314          6.77
     1.224194          0.50
     1.221866          0.50
     1.219412          0.08
     1.219273          2.31
     1.210284          8.39
     1.207764         11.26
     1.201225          7.18
     1.200828          2.19
     1.190215          5.80
     1.189828         12.02
     1.187434          0.35
     1.175099          0.06
     1.164907         55.84
     1.164786         18.60
     1.158560          0.11
     1.156941         44.06
     1.156349          3.75
     1.145063         62.74
     1.139373          2.89
     1.135514          9.39
     1.129634         30.07
     1.128133          2.42
     1.127584          0.74
     1.126091          0.31
     1.118462         11.90
     1.111827          9.44
     1.111511         12.84
     1.101375          5.62
     1.094234         39.48
     1.093833          1.46
     1.092870          1.35
     1.092371          1.36
     1.091113          3.96
     1.086187          6.01
     1.085892          3.55
     1.082745          0.32
     1.078026         21.11
     1.077355         14.85
     1.068491          3.30
     1.066848          4.47
     1.066756          4.87
     1.061967          3.00
     1.061600         13.43
     1.059022          4.07
     1.054606          1.80
     1.054336          1.19
     1.053978          0.00
     1.052669          2.13
     1.045236          1.63
     1.044134          1.24
     1.038386         11.39
     1.036879          1.30
     1.032059          3.72
     1.031250          0.86
     1.025381          0.04
     1.024258          3.02
     1.023847         28.39
     1.022729          2.13
     1.018750          2.98
     1.018184          0.09
     1.015989         16.24
     1.012008          2.74
##############################################################################
###                            Comments                                    ###
##############################################################################
###   Diffraction pattern calculated by Match!. 
###   I/Ic calculated by Match!. 
##############################################################################


