##############################################################################
###               Crystal structure data exported by Match!                ###
##############################################################################
###                           Data published by:                           ###
###                                                                        ###
###               COD (Crystallography Open Database)
##############################################################################
data_9004131
_citation_journal_full    'The Canadian Mineralogist'
_citation_journal_volume  '16'
_citation_page_first  '153'
_citation_page_last   '157'
_citation_year  '1978'
_citation_title  'A crystal-structure refinement of libethenite'
loop_
_publ_author_name
  'Cordsen A.'
_chemical_formula_sum  'Cu2 H O5 P'
_chemical_name_mineral  'Libethenite'
_symmetry_space_group_name_H-M 'P n n m'
_space_group_IT_number 58
_space_group_crystal_system 'orthorhombic'
loop_
_symmetry_equiv_pos_as_xyz
   'x, y, z'
   '-x, -y, z'
   'x+0.5, -y+0.5, -z+0.5'
   '-x+0.5, y+0.5, -z+0.5'
   '-x, -y, -z'
   'x, y, -z'
   '-x+0.5, y+0.5, z+0.5'
   'x+0.5, -y+0.5, z+0.5'
_cell_length_a        8.06200
_cell_length_b        8.38400
_cell_length_c        5.88100
_cell_angle_alpha    90.0000
_cell_angle_beta     90.0000
_cell_angle_gamma    90.0000
loop_
_atom_site_label
_atom_site_fract_x
_atom_site_fract_y
_atom_site_fract_z
_atom_site_occupancy
_atom_site_B_iso_or_equiv
cu      0.000   0.000   0.249    1.00000    1.000
cu      0.138   0.625   0.000    1.00000    1.000
p      0.233   0.248   0.000    1.00000    1.000
o      0.341   0.261   0.211    1.00000    1.000
o      0.133   0.089   0.000    1.00000    1.000
o      0.102   0.384   0.000    1.00000    1.000
o      0.376   0.603   0.000    1.00000    1.000
h      0.426   0.726   0.000    1.00000    1.792
_cell_measurement_wavelength    1.541874
_cell_measurement_radiation   'x-rays'
_exptl_crystal_density_diffrn    3.995000
loop_
_pd_peak_d_spacing
_pd_peak_intensity
     5.811196        976.39
     4.814609       1000.00
     4.751203        785.52
     4.192000         16.92
     4.133595         25.73
     4.031000         20.10
     3.719258        546.62
     3.632910        211.02
     3.143398          7.26
     3.090748          1.38
     2.940500        107.10
     2.905598        895.05
     2.640518        519.64
     2.623730        900.24
     2.605001        276.86
     2.559086        420.10
     2.524161        192.80
     2.444238        200.94
     2.408854        333.31
     2.407305        138.76
     2.375601        341.84
     2.346551        155.72
     2.306667        335.50
     2.296693          9.04
     2.285620         12.88
     2.262372         51.29
     2.139342          1.01
     2.111521          0.02
     2.096000          6.79
     2.066797        135.17
     2.028563          7.82
     2.015500         12.17
     1.964651         45.92
     1.959669         20.97
     1.937065         24.81
     1.930408         62.21
     1.917685        113.56
     1.908848         64.78
     1.904830         85.68
     1.859629         22.97
     1.859169        106.56
     1.857492         12.82
     1.839834          5.77
     1.816455         38.12
     1.810021         46.92
     1.793078         47.14
     1.773096          0.00
     1.735555         31.71
     1.734191          3.00
     1.725193          0.08
     1.706781        343.68
     1.669771          0.55
     1.662463        191.97
     1.652737          1.31
     1.641667        101.13
     1.634721          1.18
     1.630713          2.34
     1.625065         53.75
     1.617619        258.63
     1.612536         37.00
     1.604870         29.37
     1.591100         67.06
     1.583734         82.88
     1.583384         63.92
     1.581216         95.02
     1.575006         59.92
     1.573986         34.36
     1.571699        113.28
     1.556212         42.58
     1.555014          3.74
     1.548195          6.67
     1.545374        251.43
     1.528938         63.42
     1.504915         46.20
     1.497184          0.24
     1.491043          0.22
     1.481529          7.86
     1.470250        171.27
     1.457938          3.35
     1.452799        198.30
     1.440756          0.94
     1.433405         29.58
     1.428774         29.31
     1.425339         24.45
     1.422585          6.32
     1.410401          0.03
     1.409669         19.53
     1.397333          0.53
     1.396618         11.72
     1.394116         33.32
     1.387393          6.12
     1.385930         29.21
     1.382707          0.47
     1.381243          3.11
     1.377865          2.67
     1.376806         18.50
     1.369918         51.75
     1.367294         37.79
     1.362871          9.43
     1.358827          4.78
     1.349153          0.27
     1.343667         20.96
     1.340559          0.23
     1.339661         64.86
     1.332392          8.58
     1.326736         10.51
     1.320259         51.09
     1.311865         91.96
     1.302500         36.92
     1.294211          1.31
     1.289028          0.82
     1.288197         18.18
     1.284549         76.78
     1.280594         61.12
     1.279543         18.90
     1.278000          1.69
     1.274833         70.67
     1.274240         16.48
     1.263584          8.86
     1.262081         40.54
     1.261553         55.84
     1.259137         20.07
     1.258616         21.14
     1.255478         20.98
     1.250292         17.77
     1.248852         15.98
     1.246894         13.00
     1.245281          0.64
     1.239753          3.90
     1.238260          0.57
     1.232794          9.39
     1.231768         48.38
     1.222119         24.73
     1.214982          0.48
     1.213091          0.67
     1.210970          0.50
     1.209338          8.23
     1.204427         12.65
     1.203652          0.70
     1.193724          3.35
     1.190458          0.82
     1.187801          0.34
     1.186086          2.04
     1.184712          1.06
     1.180575         12.73
     1.176057          1.51
     1.173623          8.91
     1.173275          2.47
     1.172085          0.41
     1.171116          5.29
     1.167208          0.19
     1.164793          8.30
     1.163879          5.38
     1.162239          8.61
     1.161381          0.05
     1.153334          8.20
     1.152823          1.66
     1.151365          0.56
     1.148346         15.06
     1.148106          2.17
     1.142810          7.05
     1.142371          4.87
     1.140999          3.72
     1.140187          3.40
     1.137467          0.00
     1.131186          3.54
     1.130245          3.98
     1.127061          3.16
     1.126834          0.39
     1.126687          1.35
     1.121457          0.75
     1.120112          0.99
     1.119734          0.00
     1.119013          0.17
     1.110824          0.01
     1.110563          0.69
     1.098877         46.41
     1.098750          0.72
     1.098499          0.37
     1.095230         37.08
     1.095063         13.17
     1.093979         34.97
     1.093160          2.06
     1.091276          3.40
     1.090259         13.59
     1.084097          7.92
     1.080873         27.14
     1.077512          5.07
     1.077402         26.60
     1.077044         13.17
     1.075529          9.10
     1.074427         25.14
     1.071493          9.57
     1.070586         10.71
     1.069671         28.15
     1.069477          0.14
     1.068722          8.34
     1.066114          6.17
     1.064835         21.45
     1.063725         36.98
     1.055975         12.01
     1.055761         70.80
     1.051666         21.42
     1.048548          0.40
     1.048000         36.38
     1.047798          4.97
     1.046898          0.09
     1.043588          0.51
     1.039354          0.48
     1.039256          0.07
     1.038935          0.66
     1.033399        111.21
     1.032269          0.29
     1.030249          0.66
     1.029633          0.88
     1.025320          2.25
     1.023400          7.64
     1.022355          4.02
     1.022050          7.72
     1.017530         10.75
     1.014282          0.63
     1.014207          8.46
     1.013935          0.45
     1.012861          0.00
     1.012588          7.01
     1.009371          0.00
     1.008493          9.76
     1.007750         21.92
##############################################################################
###                            Comments                                    ###
##############################################################################
###   Diffraction pattern calculated by Match!. 
###   I/Ic calculated by Match!. 
##############################################################################


