##############################################################################
###               Crystal structure data exported by Match!                ###
##############################################################################
###                           Data published by:                           ###
###                                                                        ###
###               COD (Crystallography Open Database)
##############################################################################
data_5000227
_citation_journal_full    'European Journal of Mineralogy (1,1989-)'
_citation_journal_volume  '8'
_citation_page_first  '187'
_citation_page_last   '192'
_citation_year  '1996'
loop_
_publ_author_name
  'Wildner M'
  'Giester G'
  'Lengauer C L'
  'McCammon C A'
_chemical_formula_sum  'As4 Co4.02 Fe1.48 H32 Ni0.50 O32'
_chemical_name_mineral  'Erythrite'
_chemical_name_common  'Cobalt iron nickel arsenate hydrate (2.01/0.74/0.25/2/8)'
_symmetry_space_group_name_H-M 'C 1 2/m 1'
_space_group_IT_number 12
_space_group_crystal_system 'monoclinic'
loop_
_symmetry_equiv_pos_as_xyz
   'x, y, z'
   'x+0.5, y+0.5, z'
   '-x, y, -z'
   '-x+0.5, y+0.5, -z'
   '-x, -y, -z'
   '-x+0.5, -y+0.5, -z'
   'x, -y, z'
   'x+0.5, -y+0.5, z'
_cell_length_a       10.25100
_cell_length_b       13.44700
_cell_length_c        4.76400
_cell_angle_alpha    90.0000
_cell_angle_beta    104.9800
_cell_angle_gamma    90.0000
_cell_formula_units_Z 2
loop_
_atom_site_label
_atom_site_fract_x
_atom_site_fract_y
_atom_site_fract_z
_atom_site_occupancy
_atom_site_B_iso_or_equiv
co      0.000   0.000   0.000    0.67000    1.000
fe      0.000   0.000   0.000    0.24670    1.000
ni      0.000   0.000   0.000    0.08330    1.000
co      0.000   0.385   0.000    0.67000    1.000
fe      0.000   0.385   0.000    0.24670    1.000
ni      0.000   0.385   0.000    0.08330    1.000
as      0.316   0.000   0.372    1.00000    1.000
o      0.149   0.000   0.375    1.00000    1.000
o      0.406   0.000   0.723    1.00000    1.000
o      0.343   0.107   0.209    1.00000    1.000
o      0.098   0.114   0.807    1.00000    1.000
o      0.400   0.227   0.713    1.00000    1.000
h      0.119   0.091   0.657    1.00000    1.000
h      0.163   0.127   0.902    1.00000    1.000
h      0.368   0.208   0.536    1.00000    1.000
h      0.448   0.282   0.714    1.00000    1.000
_cell_measurement_wavelength    1.541874
_cell_measurement_radiation   'x-rays'
_exptl_crystal_density_diffrn    3.122000
_exptl_crystal_density_meas      3.090000
loop_
_pd_peak_d_spacing
_pd_peak_intensity
     7.973781        362.61
     6.723500       1000.00
     4.951316         89.40
     4.602101         29.32
     4.402250        165.08
     4.083491         41.93
     3.986890         25.32
     3.912734        120.69
     3.797670          7.85
     3.668954         64.92
     3.381773          9.42
     3.361750         24.79
     3.230136        376.27
     3.205707         81.34
     3.008370        204.68
     3.005652        257.82
     2.904598          3.75
     2.781263         61.78
     2.743953        257.38
     2.714619        208.11
     2.657927        153.15
     2.595387          6.08
     2.549860         68.26
     2.542167          6.05
     2.475658          2.69
     2.461807        172.86
     2.366536          0.01
     2.344655         54.27
     2.329495         17.25
     2.329190        152.81
     2.323176          4.57
     2.311718         59.75
     2.301050          0.20
     2.241167         12.44
     2.240674         24.56
     2.201125         59.07
     2.197856         34.72
     2.177081          9.51
     2.141223          3.14
     2.118577          5.91
     2.102835          0.26
     2.097590         32.50
     2.084980        109.06
     2.041745         11.75
     2.027680          0.64
     2.014938         19.80
     1.996138          8.43
     1.993445          6.26
     1.986192         30.54
     1.977380          0.82
     1.959388         39.58
     1.956367         13.80
     1.952348         44.53
     1.944738          8.06
     1.919103        104.52
     1.914725          1.04
     1.906826         16.09
     1.898835          2.26
     1.897039          0.00
     1.885844          0.01
     1.878461          2.72
     1.840492         28.68
     1.834477          0.02
     1.811567          0.84
     1.796677         10.52
     1.792348         11.71
     1.782785          3.75
     1.775959         24.33
     1.725427          3.19
     1.715637          3.26
     1.704398         12.91
     1.699393          0.21
     1.690886         34.80
     1.688289         50.84
     1.680875         78.04
     1.680176          7.24
     1.666653         88.90
     1.661476          0.75
     1.660306          9.05
     1.658593         24.20
     1.657270         11.61
     1.656563         16.62
     1.650439         21.70
     1.647580          4.25
     1.630932          5.06
     1.621916         27.09
     1.615068         10.62
     1.614383         33.34
     1.605498          2.53
     1.602853         33.05
     1.594756         13.63
     1.591658          2.59
     1.585762          0.65
     1.584158          3.46
     1.578860          1.72
     1.568177          0.21
     1.564320         43.99
     1.544397         10.75
     1.543415          1.07
     1.543302         35.78
     1.542742          1.61
     1.534034         18.32
     1.516627         41.44
     1.504185         10.27
     1.502826         45.31
     1.500733          0.56
     1.495599         13.36
     1.495106         12.96
     1.489253         20.90
     1.487442         10.17
     1.482754          0.72
     1.481523          0.29
     1.477389          8.95
     1.473832         11.18
     1.467417         15.41
     1.467050         42.99
     1.466635         16.32
     1.460788         15.23
     1.453980          4.95
     1.452326         11.11
     1.452299          4.47
     1.451409         15.17
     1.439792          4.67
     1.438045          0.72
     1.434208         29.51
     1.433021          3.13
     1.424604         12.47
     1.422740          2.52
     1.418287         28.83
     1.407874          0.17
     1.406898          0.00
     1.402567          3.29
     1.395598         12.07
     1.393117          4.04
     1.391545          0.40
     1.391156          2.51
     1.390632          0.42
     1.390410          8.85
     1.388162         28.93
     1.388161          0.19
     1.378916          6.81
     1.371976          2.67
     1.368714          4.54
     1.366833          6.40
     1.363078          9.81
     1.361626         21.30
     1.361164          4.56
     1.360242          2.84
     1.357309          0.88
     1.354125          9.78
     1.349067         13.88
     1.344876         23.49
     1.344837         21.29
     1.344700         23.82
     1.341205          0.12
     1.336902          2.03
     1.333012          2.66
     1.328963          6.23
     1.323515          0.02
     1.313621          1.80
     1.304245          3.87
     1.297694          0.06
     1.294492          6.16
     1.290729          0.06
     1.289542          5.65
     1.284851         13.09
     1.283515          0.05
     1.283076          0.35
     1.281300          4.43
     1.280692          0.43
     1.280377          2.47
     1.274930          1.32
     1.271695          1.61
     1.271083          2.95
     1.270320          0.00
     1.268998          0.04
     1.267673          0.26
     1.265890          6.79
     1.265591          5.46
     1.265575          0.39
     1.260915          2.71
     1.260022          8.38
     1.258648          7.57
     1.258051         16.76
     1.252016         17.89
     1.248182          3.01
     1.242274          0.60
     1.239326          1.22
     1.237829          0.30
     1.230903          3.87
     1.230417          0.79
     1.227457         20.24
     1.223528          2.93
     1.222985         12.35
     1.221965          3.41
     1.219790          1.41
     1.217370          1.41
     1.216191          0.00
     1.215941          0.03
     1.213245          0.10
     1.211358          0.00
     1.210780          1.20
     1.207704          1.38
     1.202170          2.15
     1.202029          0.45
     1.200910          2.12
     1.199091          0.40
     1.197284          0.08
     1.195051          0.01
     1.192764          5.66
     1.190565         14.86
     1.183268          0.47
     1.182429          9.63
     1.181640          0.09
     1.181272          2.71
     1.180124         11.88
     1.177650         11.29
     1.175066          1.17
     1.173788          0.03
     1.172327          4.57
     1.168105          0.03
     1.165487         11.79
     1.164748          3.07
     1.164595          5.25
     1.164110          0.49
     1.163673          1.03
     1.162354          2.67
     1.161588          6.08
     1.160992          0.32
     1.157521          0.15
     1.155859          0.10
     1.153463          0.04
     1.150525          0.34
     1.149295         12.51
     1.147654          1.74
     1.146414          0.28
     1.146366          6.30
     1.143651          0.14
     1.139569          4.75
     1.139112          0.89
     1.136809         15.37
     1.136561          0.06
     1.134709          0.98
     1.134041          1.89
     1.133497          0.01
     1.133089          9.79
     1.131852          1.64
     1.131760          3.03
     1.127258          0.59
     1.125764          3.13
     1.124652          8.17
     1.122265          0.26
     1.120583          1.14
     1.120376          3.10
     1.120337         20.53
     1.117531          2.01
     1.114320          0.99
     1.113920          7.05
     1.113292          2.13
     1.112344          2.20
     1.111947          0.01
     1.109255          6.62
     1.109241          3.95
     1.108169          0.13
     1.106873          0.62
     1.106642          0.00
     1.103708          0.22
     1.101186         10.09
     1.100563          0.00
     1.099324          0.41
     1.098928          0.69
     1.098818          0.47
     1.096627          0.91
     1.095471          7.59
     1.093480          2.16
     1.092942          2.44
     1.089668          0.00
     1.088772          3.47
     1.088541          5.83
     1.087509          1.10
     1.085250          0.02
     1.085057          0.30
     1.084448          0.24
     1.083545          2.66
     1.082814          2.22
     1.081117          0.27
     1.079248          4.39
     1.078890          0.16
     1.078041          6.86
     1.077827          3.07
     1.077274          0.10
     1.076712          0.55
     1.070612          0.48
     1.068569          3.40
     1.066551          1.32
     1.064947          0.94
     1.061793          1.89
     1.061349          2.25
     1.060117          2.39
##############################################################################
###                            Comments                                    ###
##############################################################################
###   Diffraction pattern calculated by Match!. 
###   I/Ic calculated by Match!. 
###   Space group has been derived from given symmetry operations. 
##############################################################################


