##############################################################################
###               Crystal structure data exported by Match!                ###
##############################################################################
###                           Data published by:                           ###
###                                                                        ###
###               COD (Crystallography Open Database)
##############################################################################
data_9015465
_citation_journal_full    'Physics and Chemistry of Minerals'
_citation_journal_volume  '39'
_citation_page_first  '399'
_citation_page_last   '412'
_citation_year  '2012'
_citation_title  'Crystal-structure properties and the molecular nature ofhydrostatically compressed realgarNote: P = 2.14 GPa'
loop_
_publ_author_name
  'Hejny C.'
  'Sagl R.'
  'Tobbens D. M.'
  'Miletich R.'
  'Wildner M.'
  'Nasdala L.'
  'Ullrich A.'
  'Balic-Zunic T'
_chemical_formula_sum  'As S'
_chemical_name_mineral  'Realgar'
_symmetry_space_group_name_H-M 'P 1 21/n 1'
_space_group_IT_number 14
_space_group_crystal_system 'monoclinic'
loop_
_symmetry_equiv_pos_as_xyz
   'x, y, z'
   '-x+0.5, y+0.5, -z+0.5'
   '-x, -y, -z'
   'x+0.5, -y+0.5, z+0.5'
_cell_length_a        9.00300
_cell_length_b       12.91900
_cell_length_c        6.31800
_cell_angle_alpha    90.0000
_cell_angle_beta    106.8700
_cell_angle_gamma    90.0000
loop_
_atom_site_label
_atom_site_fract_x
_atom_site_fract_y
_atom_site_fract_z
_atom_site_occupancy
_atom_site_B_iso_or_equiv
as      0.113   -0.026   0.758    1.00000    1.539
as      0.430   0.137   0.853    1.00000    1.476
as      0.327   0.127   0.186    1.00000    1.476
as      0.032   0.163   0.705    1.00000    1.689
s      0.341   -0.015   0.690    1.00000    1.713
s      0.208   -0.028   0.123    1.00000    1.737
s      0.236   0.229   0.622    1.00000    1.997
s      0.108   0.218   0.056    1.00000    1.334
_cell_measurement_wavelength    1.541874
_cell_measurement_radiation   'x-rays'
_exptl_crystal_density_diffrn    4.042000
loop_
_pd_peak_d_spacing
_pd_peak_intensity
     7.167839        107.61
     6.459500         54.16
     5.803999        482.82
     5.476078        414.80
     5.294255        283.10
     5.168225       1000.00
     4.414158         81.04
     4.386560          4.54
     4.317251         17.27
     4.307781          8.03
     4.153653          2.89
     4.086582         81.11
     3.923800        252.75
     3.851960         59.08
     3.628903         59.31
     3.583920         77.94
     3.507584         51.69
     3.472602        134.97
     3.458368          2.03
     3.229750          8.17
     3.073009         45.18
     3.062789         20.60
     3.045549        514.20
     3.024234        361.12
     3.023054        571.10
     3.021717         51.07
     2.976351         11.09
     2.946567        481.97
     2.943540        103.04
     2.901999          0.10
     2.872792         90.03
     2.848769        309.78
     2.833226        339.45
     2.831443        228.49
     2.822213          0.30
     2.803422         31.87
     2.800621        716.73
     2.738039        137.59
     2.680823        168.04
     2.647127         14.41
     2.624188        141.74
     2.600823        553.06
     2.584113        130.75
     2.571971        200.68
     2.543822          4.74
     2.541438        113.86
     2.520143          2.51
     2.474900        254.18
     2.474253         59.30
     2.431789         52.80
     2.431474         24.52
     2.426715        169.08
     2.406555         30.19
     2.389280        168.70
     2.375937          9.75
     2.360465        204.36
     2.343840         94.97
     2.307651        146.85
     2.306193         74.60
     2.256032        109.55
     2.241096          6.07
     2.239466         33.58
     2.226295          3.11
     2.215787         16.56
     2.212243          3.01
     2.207079         21.22
     2.203280         46.26
     2.193280         32.31
     2.188706          0.14
     2.176781          0.84
     2.162339          0.90
     2.158625          0.20
     2.153890         19.47
     2.153167        124.36
     2.146132         71.37
     2.143031        144.97
     2.124565         15.71
     2.120922         57.11
     2.102367        146.21
     2.088920        159.91
     2.076826         40.99
     2.075070         90.26
     2.059175        130.66
     2.058665          8.57
     2.044532        163.11
     2.043291         70.79
     2.036813          3.14
     2.033506         40.05
     2.028381         18.04
     2.018728         48.75
     1.999147          0.12
     1.998401          2.02
     1.991285         29.35
     1.991006         13.34
     1.986859          0.56
     1.971796         67.48
     1.964138          0.08
     1.962356         45.03
     1.961900         48.58
     1.954393         12.03
     1.942692          5.25
     1.934666         53.50
     1.932869          0.46
     1.929754          0.07
     1.926369          0.22
     1.925980         47.14
     1.923903         10.28
     1.920812         13.69
     1.913331         13.64
     1.908116         18.65
     1.896963         40.00
     1.889245         20.06
     1.866111          8.64
     1.857715          0.08
     1.853325          4.97
     1.847107         20.82
     1.845948          0.74
     1.843636          4.03
     1.841246         58.66
     1.828512         13.82
     1.825359          7.52
     1.815137          1.67
     1.814452          4.28
     1.804631         17.96
     1.800573         49.35
     1.791960         11.36
     1.791887         60.65
     1.785692          5.79
     1.783336         45.34
     1.778054         91.49
     1.775926        112.37
     1.769910        152.64
     1.765166          8.15
     1.764752          7.55
     1.763665         31.23
     1.761961         12.63
     1.758794          1.82
     1.753792         92.49
     1.743150          0.82
     1.738474        119.61
     1.736301         32.12
     1.735995          0.05
     1.734450        123.57
     1.730219         17.23
     1.729184          9.51
     1.722742         36.71
     1.712989          0.87
     1.711463        122.04
     1.709797         43.27
     1.707987          6.16
     1.701138          6.83
     1.697540         35.07
     1.696436          0.09
     1.694844         82.29
     1.686822         27.31
     1.685466          1.64
     1.684190         10.75
     1.672088         17.59
     1.669526          4.94
     1.664894         21.03
     1.664641         37.33
     1.661208         39.31
     1.659684         70.75
     1.654437          6.58
     1.637510         27.13
     1.630740        141.79
     1.623250        100.02
     1.618021         46.20
     1.615793          9.92
     1.615127          1.85
     1.614875         48.02
     1.610334         40.79
     1.603903         51.48
     1.603410        163.79
     1.599796         16.71
     1.599419        123.94
     1.594368          4.62
     1.592731          3.77
     1.589122         47.80
     1.587234         28.17
     1.586870          0.32
     1.585649         25.97
     1.576334         25.66
     1.575221          4.11
     1.572687         71.66
     1.564729          4.56
     1.564094         18.33
     1.560183          0.67
     1.557318         31.84
     1.556835          7.11
     1.555777          2.20
     1.554106         47.46
     1.553963         12.30
     1.552607         26.25
     1.550677          0.09
     1.548648          0.04
     1.543278         13.78
     1.542842          0.79
     1.541444          2.62
     1.539626          7.76
     1.536505         14.70
     1.535895         28.80
     1.532383         64.88
     1.531394          1.99
     1.523992          1.06
     1.523804          4.04
     1.522818          2.52
     1.522775          0.59
     1.520280          6.64
     1.515444          5.37
     1.512261         28.73
     1.512117          6.70
     1.511527          0.21
     1.510859         59.01
     1.509673          2.59
     1.507838          4.82
     1.504237         33.85
     1.503426          0.24
     1.502630          0.56
     1.501287          6.23
     1.501032          8.73
     1.495181          0.55
     1.492481         17.96
     1.492039         10.41
     1.488255          1.39
     1.488176         16.77
     1.480277          1.95
     1.478594         33.80
     1.477256          5.57
     1.473588          0.61
     1.473284          1.89
     1.471770          8.70
     1.471386          2.04
     1.469940         10.23
     1.463796         32.15
     1.462187          5.42
     1.461706          3.22
     1.459486         53.22
     1.458970          6.64
     1.452910          0.02
     1.452802          7.81
     1.451000         64.49
     1.450009         33.07
     1.446638          1.33
     1.444643          8.51
     1.441933         29.95
     1.439084         23.82
     1.437291          2.86
     1.436521          9.20
     1.436396          5.85
     1.435927          0.26
     1.433568          1.11
     1.432979         51.95
     1.427139          0.34
     1.426222          7.38
     1.426106          2.56
     1.425770          6.62
     1.424385         13.64
     1.416613         24.95
     1.416142          2.81
     1.415927         12.47
     1.415721          7.64
     1.415035         40.00
     1.412143         22.11
     1.411782         45.26
     1.411107          1.43
     1.410747          1.61
     1.409746          1.65
     1.407599          1.77
     1.401934          0.01
     1.401711          1.79
     1.401462          0.14
     1.400310         76.08
     1.397904         23.43
     1.396623          3.86
     1.395879          0.07
     1.393961         18.57
     1.393460          3.26
     1.392476         56.27
     1.391128          3.99
     1.387153         14.70
     1.386971         13.32
     1.385287         35.50
     1.384551          0.22
     1.381259          0.05
     1.377739         10.85
     1.375370         10.86
     1.375042          1.78
     1.374350          0.51
     1.369019          6.57
     1.365098          0.66
     1.364257          6.92
     1.362194          0.05
     1.361828         50.75
     1.361093         18.99
     1.359116          3.61
     1.356133          0.72
     1.355469          4.48
     1.351746          6.38
     1.348821          6.21
     1.347788         13.35
     1.345672         14.70
     1.345348          2.03
     1.342794          9.10
     1.340641          5.06
     1.340411          2.11
     1.339131          5.65
     1.335403          3.51
     1.332038          0.76
     1.331988         23.48
     1.331674          6.58
     1.329801          8.11
     1.329605          0.00
     1.324931          0.05
     1.323564          0.09
     1.318734          0.31
     1.318056          4.34
     1.312254          0.44
     1.312094          5.01
     1.311861          0.19
     1.311244         18.07
     1.311030          8.03
     1.310086          2.20
     1.307933          5.60
     1.307225          7.06
     1.306403         36.69
     1.305559          0.68
     1.305536          2.25
     1.304677         13.83
     1.303163          0.86
     1.300664          0.05
     1.300412          4.21
     1.300130          1.64
     1.296689          3.69
     1.296097          0.09
     1.292056          6.55
     1.291900          6.21
     1.290461          0.02
     1.289436          0.04
     1.288812          5.14
     1.287600          1.17
     1.286647         25.82
     1.285985          1.04
     1.285040          3.14
     1.283987          0.49
     1.280905          5.95
     1.280674          0.97
     1.279845         19.93
     1.278725          5.68
     1.277616          0.96
     1.274655          2.55
     1.273396          3.86
     1.272550          0.77
     1.271911          0.02
     1.270719         34.29
     1.270589          7.91
     1.270459          4.74
     1.268329          4.99
     1.267660          0.34
     1.265155         18.01
     1.263395          2.37
     1.263381         24.85
     1.261495          2.23
     1.261038          5.64
     1.260218          8.18
     1.260072          2.66
     1.259493          0.66
     1.259384          1.05
     1.258318          1.06
     1.257537         23.02
     1.256768         16.61
     1.256440          3.53
     1.255266          1.32
     1.255127          0.04
     1.254354          3.58
     1.252421          5.26
     1.251949          0.23
     1.249092          9.88
     1.248388          5.04
     1.246112          0.05
     1.244642          0.18
     1.242726          0.27
     1.242600          4.80
     1.241172          2.02
     1.240935          2.50
     1.240037         20.75
     1.239745          3.27
     1.239271          2.07
     1.237450          4.67
     1.237127          2.52
     1.237011          0.10
     1.235347          1.32
     1.232673          4.43
     1.230420          0.64
     1.229804         12.52
     1.229738         28.12
     1.229077          3.15
     1.227744          5.27
     1.225707          1.19
     1.225247          0.10
     1.224118         12.50
     1.223993          0.11
     1.220840         20.10
     1.219562          6.09
     1.217101          0.43
     1.215895          3.40
     1.215756          6.27
     1.215737          1.23
     1.214164          1.82
     1.213358          0.97
     1.212425          5.67
     1.212299          0.06
     1.211800          4.23
     1.210372         13.92
     1.209634          3.93
     1.209429          3.50
     1.209043         19.85
     1.203959          0.53
     1.203278          8.02
     1.202704          0.85
     1.202198          1.87
     1.202176          1.58
     1.201078          2.96
     1.199021          2.57
     1.198632          1.21
     1.198390          3.05
     1.196394          0.33
     1.195425          0.17
     1.195073          0.20
     1.194744          2.72
     1.194640          0.97
     1.194485          0.81
     1.194002         11.49
     1.192941          0.51
     1.190683          0.03
     1.188931          3.66
     1.188708          0.62
     1.188575          5.70
     1.187969          3.90
     1.187454         13.55
     1.187261          0.28
     1.187235          1.69
     1.185589          0.01
     1.185522          9.05
     1.185475          1.76
     1.183905          5.44
     1.183408          7.04
     1.183174          5.15
     1.181294         34.52
     1.180233          0.01
     1.179935          3.38
     1.179695          0.87
     1.179477          0.21
     1.178297         10.89
     1.178178          1.00
     1.177566          0.00
     1.176695          0.32
     1.173414          0.08
     1.171920         10.35
     1.171221          0.94
     1.170006          9.52
     1.169990         16.07
     1.169387          0.26
     1.169195          2.83
     1.167318         23.16
     1.167128          0.00
     1.164430          3.82
     1.164195          0.03
     1.163692          4.38
     1.163197          0.06
     1.160800          0.03
     1.159084          2.20
     1.158375          3.84
     1.157534          4.81
     1.157350          1.52
     1.156142          6.31
     1.154597          0.45
     1.154389          7.63
     1.153826          3.34
     1.153097          0.21
     1.152905          6.99
     1.152789         10.80
     1.152340          1.30
     1.151406          4.43
     1.151124          3.86
     1.150113          0.01
     1.150013          1.71
     1.147783          0.98
     1.147623          9.97
     1.146086         12.71
     1.144838          4.38
     1.144558          0.66
     1.142965          0.23
     1.142499          0.46
     1.141575         16.22
     1.140932          0.22
     1.140675          0.00
     1.138518          2.66
     1.137784          1.64
     1.137543         11.73
##############################################################################
###                            Comments                                    ###
##############################################################################
###   Baia Sprie mine, Romania
###   Diffraction pattern calculated by Match!. 
###   I/Ic calculated by Match!. 
##############################################################################


