##############################################################################
###               Crystal structure data exported by Match!                ###
##############################################################################
###                           Data published by:                           ###
###                                                                        ###
###               COD (Crystallography Open Database)
##############################################################################
data_9001237
_citation_journal_full    'American Mineralogist'
_citation_journal_volume  '74'
_citation_page_first  '952'
_citation_page_last   '955'
_citation_year  '1989'
_citation_title  'BaCuSi2O6: a new cyclosilicate with four-membered tetrahedral rings'
loop_
_publ_author_name
  'Finger L. W.'
  'Hazen R. M.'
  'Hemley R. J.'
_chemical_formula_sum  'Ba Cu O6 Si2'
_chemical_name_common  'Barium copper cyclosilicate'
_symmetry_space_group_name_H-M 'I -4 m 2'
_space_group_IT_number 119
_space_group_crystal_system 'tetragonal'
loop_
_symmetry_equiv_pos_as_xyz
   'x, y, z'
   'x+0.5, y+0.5, z+0.5'
   'y, -x, -z'
   'y+0.5, -x+0.5, -z+0.5'
   '-x, -y, z'
   '-x+0.5, -y+0.5, z+0.5'
   '-y, x, -z'
   '-y+0.5, x+0.5, -z+0.5'
   'y, x, -z'
   'y+0.5, x+0.5, -z+0.5'
   '-y, -x, -z'
   '-y+0.5, -x+0.5, -z+0.5'
   '-x, y, z'
   '-x+0.5, y+0.5, z+0.5'
   'x, -y, z'
   'x+0.5, -y+0.5, z+0.5'
_cell_length_a        7.04200
_cell_length_b        7.04200
_cell_length_c       11.13300
_cell_angle_alpha    90.0000
_cell_angle_beta     90.0000
_cell_angle_gamma    90.0000
loop_
_atom_site_label
_atom_site_fract_x
_atom_site_fract_y
_atom_site_fract_z
_atom_site_occupancy
_atom_site_B_iso_or_equiv
ba      0.500   0.000   0.250    1.00000    1.252
ba      0.000   0.500   0.250    1.00000    1.056
cu      0.000   0.000   0.122    1.00000    0.717
si      0.276   0.276   0.000    1.00000    0.566
o      0.218   0.165   0.119    1.00000    1.832
o      0.743   0.000   0.530    1.00000    1.266
_cell_measurement_wavelength    1.541874
_cell_measurement_radiation   'x-rays'
_exptl_crystal_density_diffrn    4.247000
loop_
_pd_peak_d_spacing
_pd_peak_intensity
     5.951365        270.71
     5.566500         21.57
     4.979446        149.20
     3.711255        893.19
     3.521000        195.50
     3.283031        270.10
     3.030366        233.05
     2.975683       1000.00
     2.783250         35.09
     2.489723        510.08
     2.429491        654.36
     2.401178          5.01
     2.296835          9.66
     2.272749        134.28
     2.226876         71.30
     2.183465         30.91
     2.123004         82.73
     2.067567        302.74
     1.983788          2.38
     1.923721         58.11
     1.855628         28.73
     1.855500          9.89
     1.818086          9.06
     1.760500        203.97
     1.738814        365.62
     1.738709         76.53
     1.728344         72.13
     1.688185         11.07
     1.678552         18.41
     1.659815          0.47
     1.641516        138.61
     1.615440          0.08
     1.590610         81.98
     1.574639         88.23
     1.551504         30.99
     1.551355          6.26
     1.515183        179.02
     1.487841         42.32
     1.487776         27.34
     1.468279         48.86
     1.425565        103.45
     1.425507         70.62
     1.419664         13.16
     1.397263         14.29
     1.391625         49.53
     1.381050          4.40
     1.370506          1.37
     1.355171         20.91
     1.340412         70.30
     1.340268          5.90
     1.316759         27.67
     1.316668          4.51
     1.298738         27.91
     1.294207         21.04
     1.277126         10.73
     1.244861         41.32
     1.237123        113.03
     1.237085         24.24
     1.233336          1.00
     1.233261          2.44
     1.218346          4.60
     1.214853          6.26
     1.214746         91.50
     1.207693         13.99
     1.200589         85.36
     1.190273         19.74
     1.180235         27.54
     1.180137         13.51
     1.173667         17.39
     1.163929          3.14
     1.151489          8.87
     1.151367          5.75
     1.148417         28.27
     1.136374         17.43
     1.127587          0.30
     1.113438         35.87
     1.113300          0.60
     1.107890         73.05
     1.107863         30.24
     1.105168          1.73
     1.094448          0.05
     1.094344          3.21
     1.091811         24.06
     1.091733         55.11
     1.086476         17.97
     1.081446          0.53
     1.066403          0.77
     1.061502         29.24
     1.054446         11.82
     1.054399          5.67
     1.045123          2.34
     1.045032          3.23
     1.042758         36.65
     1.033784         13.77
     1.033761          5.51
     1.027154          2.37
     1.016320          1.94
     1.012179         16.33
     1.010122          4.57
     1.010081          9.51
##############################################################################
###                            Comments                                    ###
##############################################################################
###   Diffraction pattern calculated by Match!. 
###   I/Ic calculated by Match!. 
###   Space group has been derived from given symmetry operations. 
##############################################################################


