##############################################################################
###               Crystal structure data exported by Match!                ###
##############################################################################
###                           Data published by:                           ###
###                                                                        ###
###               COD (Crystallography Open Database)
##############################################################################
data_9011496
_citation_journal_full    'Zeitschrift fur Kristallographie'
_citation_journal_volume  '198'
_citation_page_first  '177'
_citation_page_last   '212'
_citation_year  '1992'
_citation_title  'Crystal structures of the low-temperature quartz-type phases of SiO2 and GeO2at elevated pressure P = 10.2GPa = 102 kbar'
loop_
_publ_author_name
  'Glinnemann J.'
  'King H. E.'
  'Schulz H.'
  'Hahn T.'
  'La Placa S. J.'
  'Dacol F.'
_chemical_formula_sum  'O2 Si'
_chemical_name_mineral  'Quartz'
_symmetry_space_group_name_H-M 'P 31 2 1 S'
_space_group_IT_number 152
_space_group_crystal_system 'trigonal (hexagonal axes)'
loop_
_symmetry_equiv_pos_as_xyz
   'x, y, z'
   '-y, x-y, z+0.33333'
   '-x+y, -x, z+0.66667'
   'y, x, -z+0.33333'
   '-x, -x+y, -z+0.66667'
   'x-y, -y, -z'
_cell_length_a        4.60400
_cell_length_b        4.60400
_cell_length_c        5.20700
_cell_angle_alpha    90.0000
_cell_angle_beta     90.0000
_cell_angle_gamma   120.0000
loop_
_atom_site_label
_atom_site_fract_x
_atom_site_fract_y
_atom_site_fract_z
_atom_site_occupancy
_atom_site_B_iso_or_equiv
si      0.446   0.000   0.000    1.00000    0.365
o      0.395   0.303   -0.092    1.00000    0.668
_cell_measurement_wavelength    1.541874
_cell_measurement_radiation   'x-rays'
_cell_measurement_pressure       10200000.000000
_exptl_crystal_density_diffrn    3.131000
loop_
_pd_peak_d_spacing
_pd_peak_intensity
     3.987181        199.39
     3.165676       1000.00
     2.302000        164.79
     2.179927        184.93
     2.105424         60.88
     1.993591         96.57
     1.861797         13.22
     1.735667         21.97
     1.724550         72.77
     1.591420         21.30
     1.582838         92.59
     1.507013          5.29
     1.447603        116.63
     1.385880         32.60
     1.329060          2.97
     1.309057         60.03
     1.304269         92.04
     1.287773         84.27
     1.237468         58.00
     1.183739         38.25
     1.151000          3.94
     1.137934         38.82
     1.133124         18.38
     1.123870         21.58
     1.105845         44.82
     1.089964          3.34
     1.081719          2.88
     1.055225          0.56
     1.052712          4.27
     1.017834         25.53
     1.007598         13.86
##############################################################################
###                            Comments                                    ###
##############################################################################
###   Diffraction pattern calculated by Match!. 
###   I/Ic calculated by Match!. 
###   Space group has been derived from given symmetry operations. 
##############################################################################


