##############################################################################
###               Crystal structure data exported by Match!                ###
##############################################################################
###                           Data published by:                           ###
###                                                                        ###
###               COD (Crystallography Open Database)
##############################################################################
data_4124053
_citation_journal_full    'Journal of the American Chemical Society'
_citation_journal_volume  '126'
_citation_page_first  '9769'
_citation_page_last   '9775'
_citation_year  '2004'
_citation_title  'Chemical evaluation of hypothetical uninodal zeolites'
loop_
_publ_author_name
  'Foster M.D.'
  'Bell R.G.'
  'Friedrichs O.D.'
  'Klinowski J.'
  'Paz F.A.A.'
_chemical_formula_sum  'O2 Si'
_chemical_name_common  'Silica'
_symmetry_space_group_name_H-M 'P -4 n 2'
_space_group_IT_number 118
_space_group_crystal_system 'tetragonal'
loop_
_symmetry_equiv_pos_as_xyz
   'x, y, z'
   'y, -x, -z'
   '-x, -y, z'
   '-y, x, -z'
   'y+0.5, x+0.5, -z+0.5'
   '-y+0.5, -x+0.5, -z+0.5'
   '-x+0.5, y+0.5, z+0.5'
   'x+0.5, -y+0.5, z+0.5'
_cell_length_a        6.87194
_cell_length_b        6.87194
_cell_length_c        6.81655
_cell_angle_alpha    90.0000
_cell_angle_beta     90.0000
_cell_angle_gamma    90.0000
_cell_formula_units_Z 8
loop_
_atom_site_label
_atom_site_fract_x
_atom_site_fract_y
_atom_site_fract_z
_atom_site_occupancy
_atom_site_B_iso_or_equiv
o      0.846   0.654   0.250    1.00000    1.000
o      0.000   0.500   0.935    1.00000    1.000
o      0.686   0.342   0.085    1.00000    1.000
si      0.796   0.548   0.046    1.00000    1.000
_cell_measurement_wavelength    1.541874
_cell_measurement_radiation   'x-rays'
_exptl_crystal_density_diffrn    2.479000
loop_
_pd_peak_d_spacing
_pd_peak_intensity
     4.859195        389.09
     4.839493       1000.00
     3.956770          3.62
     3.435970         10.14
     3.408275        269.42
     3.073225        192.33
     2.801651        537.31
     2.790322         41.63
     2.429598          7.34
     2.419747        102.37
     2.288573         80.62
     2.282385         39.00
     2.173098          2.48
     2.171327         50.82
     2.157315         12.76
     2.070433         59.85
     2.058274         31.63
     1.978385         22.41
     1.905933          6.80
     1.835534         28.47
     1.832337         24.45
     1.827045         87.76
     1.717985          3.73
     1.704137          3.86
     1.666690          1.81
     1.663500          5.72
     1.659537         11.38
     1.619732          8.93
     1.618998          2.73
     1.613164         18.78
     1.608111          4.60
     1.575855          1.04
     1.570473         21.14
     1.536613         13.10
     1.534111         25.14
     1.526680         46.53
     1.498998         55.49
     1.497255         68.68
     1.490344         17.51
     1.462934         26.28
     1.460237         51.80
     1.400825          3.23
     1.395161          5.55
     1.374388         29.05
     1.347698         15.05
     1.347276         14.66
     1.343908          2.05
     1.340982         23.45
     1.337248         13.95
     1.322106         24.29
     1.318923          5.49
     1.312626          2.91
     1.276087          0.08
     1.274654         22.27
     1.272868          9.96
     1.270382          7.31
     1.254298         17.82
     1.253276         17.05
     1.246195         18.01
     1.214799          3.33
     1.209873          0.59
     1.195070          9.80
     1.191547         34.19
     1.188925          9.99
     1.178528         12.34
     1.175991         15.19
     1.174029          0.83
     1.171521         10.09
     1.161299         10.06
     1.159141         35.05
     1.154859          6.29
     1.145323          5.52
     1.144286          0.55
     1.141193          2.12
     1.136092          4.57
     1.129740         11.11
     1.114537          2.56
     1.113820         14.47
     1.112628          4.41
     1.108840         19.19
     1.106258          0.60
     1.086549          0.25
     1.085664          0.30
     1.078657         13.32
     1.073217          0.43
     1.073003          1.27
     1.072363         17.55
     1.071300          3.80
     1.069816          2.59
     1.065610          2.41
     1.060157          2.52
     1.057083          7.20
     1.055251          0.17
     1.046176          3.63
     1.043025          4.03
     1.035216          2.05
     1.029137          0.50
     1.024408          0.04
     1.023666          5.56
     1.021449          0.07
     1.019796          2.02
     1.013033          3.97
     1.011599          1.84
     1.006804          7.41
##############################################################################
###                            Comments                                    ###
##############################################################################
###   Diffraction pattern calculated by Match!. 
###   I/Ic calculated by Match!. 
###   Space group has been derived from given symmetry operations. 
##############################################################################


