##############################################################################
###               Crystal structure data exported by Match!                ###
##############################################################################
###                           Data published by:                           ###
###                                                                        ###
###               COD (Crystallography Open Database)
##############################################################################
data_9006286
_citation_journal_full    'Physics and Chemistry of Minerals'
_citation_journal_volume  '21'
_citation_page_first  '269'
_citation_page_last   '284'
_citation_year  '1994'
_citation_title  'Framework silica structures generated using simulated annealingwith a potential energy function based on an H6Si2O7 moleculeSample: 3'
loop_
_publ_author_name
  'Boisen M. B.'
  'Gibbs G. V.'
  'Bukowinski M. S. T.'
_chemical_formula_sum  'O2 Si'
_chemical_name_common  'Silica'
_symmetry_space_group_name_H-M 'P n a 21'
_space_group_IT_number 33
_space_group_crystal_system 'orthorhombic'
loop_
_symmetry_equiv_pos_as_xyz
   'x, y, z'
   '-x, -y, z+0.5'
   '-x+0.5, y+0.5, z+0.5'
   'x+0.5, -y+0.5, z'
_cell_length_a        5.04820
_cell_length_b        6.65680
_cell_length_c        4.93710
_cell_angle_alpha    90.0000
_cell_angle_beta     90.0000
_cell_angle_gamma    90.0000
loop_
_atom_site_label
_atom_site_fract_x
_atom_site_fract_y
_atom_site_fract_z
_atom_site_occupancy
_atom_site_B_iso_or_equiv
si      0.052   0.625   0.000    1.00000    1.000
o      0.029   0.569   0.319    1.00000    1.000
o      0.146   0.190   0.413    1.00000    1.000
_cell_measurement_wavelength    1.541874
_cell_measurement_radiation   'x-rays'
_exptl_crystal_density_diffrn    2.405000
loop_
_pd_peak_d_spacing
_pd_peak_intensity
     4.022377       1000.00
     3.965493        980.08
     3.328400          0.55
     3.118425         94.46
     2.778777        153.31
     2.524100        152.86
     2.468550        171.65
     2.421566        220.12
     2.247418         32.36
     2.129339         49.04
     2.103937         36.71
     2.031360          5.13
     2.023916         45.88
     2.011188         19.22
     1.982746         17.25
     1.878564         58.84
     1.862575         12.21
     1.845503         39.34
     1.764841         15.30
     1.705906         16.97
     1.666528         33.90
     1.664200         28.44
     1.631417         43.10
     1.597603         45.92
     1.580531          3.79
     1.578997         27.12
     1.568556         42.79
     1.559212          9.24
     1.549037         26.79
     1.523148          8.34
     1.505277          5.32
     1.501723         46.12
     1.436730         28.48
     1.416001         94.09
     1.389389         19.72
     1.381233         12.99
     1.379907         22.99
     1.378569         19.64
     1.361045         10.31
     1.349925         25.51
     1.340792          9.84
     1.337438         17.73
     1.331075          4.69
     1.321831         27.39
     1.293926         22.80
     1.287343         25.91
     1.285442         21.37
     1.282971         25.48
     1.278722          4.78
     1.273645          4.19
     1.262050          0.40
     1.245692          1.51
     1.239962         16.76
     1.234275          4.19
     1.222733         17.50
     1.210783         18.09
     1.202614          3.23
     1.183265          0.04
     1.180066          2.93
     1.179972         17.96
     1.178215         12.02
     1.177589          0.52
     1.170980         23.30
     1.158603         15.88
     1.157266          3.49
     1.150679         11.81
     1.147736          2.34
     1.145457         13.09
     1.141452         13.65
     1.139947          6.23
     1.128006          1.27
     1.123709          0.18
     1.109467          0.04
     1.109293         16.43
     1.108806          9.51
     1.108033         12.46
     1.097023          7.94
     1.093738         11.03
     1.083606          0.03
     1.070905          1.38
     1.067017          0.78
     1.064669          2.58
     1.062849          4.79
     1.061634          7.90
     1.058412         29.31
     1.054824         12.82
     1.051969          0.68
     1.044090          0.54
     1.039475          5.54
     1.035061          1.47
     1.021498          3.78
     1.015680          1.16
     1.013967          2.71
     1.011958          0.91
##############################################################################
###                            Comments                                    ###
##############################################################################
###   Diffraction pattern calculated by Match!. 
###   I/Ic calculated by Match!. 
###   Space group has been derived from given symmetry operations. 
##############################################################################


