##############################################################################
###               Crystal structure data exported by Match!                ###
##############################################################################
###                           Data published by:                           ###
###                                                                        ###
###               COD (Crystallography Open Database)
##############################################################################
data_1530150
_citation_journal_full    'Kristallografiya'
_citation_journal_volume  '22'
_citation_page_first  '1253'
_citation_page_last   '1258'
_citation_year  '1977'
_citation_title  'An electron-diffraction investigation of titanium dioxide in thin films'
loop_
_publ_author_name
  'Khitrova V.I.'
  'Bundule M.F.'
  'Pinsker Z.G.'
_chemical_formula_sum  'O2 Ti'
_chemical_name_common  'Titanium(IV) oxide'
_symmetry_space_group_name_H-M 'P 42/m n m'
_space_group_IT_number 136
_space_group_crystal_system 'tetragonal'
loop_
_symmetry_equiv_pos_as_xyz
   'x, y, z'
   '-y+0.5, x+0.5, z+0.5'
   '-x, -y, z'
   'y+0.5, -x+0.5, z+0.5'
   'x+0.5, -y+0.5, -z+0.5'
   '-x+0.5, y+0.5, -z+0.5'
   'y, x, -z'
   '-y, -x, -z'
   '-x, -y, -z'
   'y+0.5, -x+0.5, -z+0.5'
   'x, y, -z'
   '-y+0.5, x+0.5, -z+0.5'
   '-x+0.5, y+0.5, z+0.5'
   'x+0.5, -y+0.5, z+0.5'
   '-y, -x, z'
   'y, x, z'
_cell_length_a        4.59000
_cell_length_b        4.59000
_cell_length_c        2.96000
_cell_angle_alpha    90.0000
_cell_angle_beta     90.0000
_cell_angle_gamma    90.0000
_cell_formula_units_Z 2
loop_
_atom_site_label
_atom_site_fract_x
_atom_site_fract_y
_atom_site_fract_z
_atom_site_occupancy
_atom_site_B_iso_or_equiv
o      0.327   0.327   0.000    1.00000    1.000
ti      0.000   0.000   0.000    1.00000    1.000
_cell_measurement_wavelength    1.541874
_cell_measurement_radiation   'x-rays'
_exptl_crystal_density_diffrn    4.254000
loop_
_pd_peak_d_spacing
_pd_peak_intensity
     3.245620       1000.00
     2.487597        304.85
     2.295000         96.03
     2.187055        123.45
     2.052710         82.51
     1.686794        453.11
     1.622810        102.52
     1.480000         61.75
     1.451485         47.63
     1.422984         12.88
     1.359167        166.43
     1.346604         82.04
     1.303231          0.40
     1.273037          0.15
     1.243798         21.82
     1.200502         12.64
     1.169466         34.87
     1.147500         10.94
     1.113239          5.75
     1.093527         38.38
     1.081873         31.16
     1.041982         56.84
     1.036290         27.50
     1.026355         28.19
     1.016129          0.00
##############################################################################
###                            Comments                                    ###
##############################################################################
###   Diffraction pattern calculated by Match!. 
###   I/Ic calculated by Match!. 
###   Space group has been derived from given symmetry operations. 
##############################################################################


