##############################################################################
###               Crystal structure data exported by Match!                ###
##############################################################################
###                           Data published by:                           ###
###                                                                        ###
###               COD (Crystallography Open Database)
##############################################################################
data_9010311
_citation_journal_full    'American Mineralogist'
_citation_journal_volume  '92'
_citation_page_first  '1464'
_citation_page_last   '1473'
_citation_year  '2007'
_citation_title  'Jarosite - hydronium jarosite solid solution series withfull iron occupancy: Mineralogy and crystal chemistryLocality: syntheticSample: E'
loop_
_publ_author_name
  'Basciano L. C.'
  'Peterson R. C.'
_chemical_formula_sum  'Fe3 H6.49 K0.51 O14 S2'
_chemical_name_mineral  'Jarosite'
_symmetry_space_group_name_H-M 'R -3 m'
_space_group_IT_number 166
_space_group_crystal_system 'trigonal (hexagonal axes)'
loop_
_symmetry_equiv_pos_as_xyz
   'x, y, z'
   'x+0.66667, y+0.33333, z+0.33333'
   'x+0.33333, y+0.66667, z+0.66667'
   '-y, x-y, z'
   '-y+0.66667, x-y+0.33333, z+0.33333'
   '-y+0.33333, x-y+0.66667, z+0.66667'
   '-x+y, -x, z'
   '-x+y+0.66667, -x+0.33333, z+0.33333'
   '-x+y+0.33333, -x+0.66667, z+0.66667'
   'x-y, -y, -z'
   'x-y+0.66667, -y+0.33333, -z+0.33333'
   'x-y+0.33333, -y+0.66667, -z+0.66667'
   '-x, -x+y, -z'
   '-x+0.66667, -x+y+0.33333, -z+0.33333'
   '-x+0.33333, -x+y+0.66667, -z+0.66667'
   'y, x, -z'
   'y+0.66667, x+0.33333, -z+0.33333'
   'y+0.33333, x+0.66667, -z+0.66667'
   '-x, -y, -z'
   '-x+0.66667, -y+0.33333, -z+0.33333'
   '-x+0.33333, -y+0.66667, -z+0.66667'
   'y, -x+y, -z'
   'y+0.66667, -x+y+0.33333, -z+0.33333'
   'y+0.33333, -x+y+0.66667, -z+0.66667'
   'x-y, x, -z'
   'x-y+0.66667, x+0.33333, -z+0.33333'
   'x-y+0.33333, x+0.66667, -z+0.66667'
   '-x+y, y, z'
   '-x+y+0.66667, y+0.33333, z+0.33333'
   '-x+y+0.33333, y+0.66667, z+0.66667'
   'x, x-y, z'
   'x+0.66667, x-y+0.33333, z+0.33333'
   'x+0.33333, x-y+0.66667, z+0.66667'
   '-y, -x, z'
   '-y+0.66667, -x+0.33333, z+0.33333'
   '-y+0.33333, -x+0.66667, z+0.66667'
_cell_length_a        7.33009
_cell_length_b        7.33009
_cell_length_c       17.13740
_cell_angle_alpha    90.0000
_cell_angle_beta     90.0000
_cell_angle_gamma   120.0000
loop_
_atom_site_label
_atom_site_fract_x
_atom_site_fract_y
_atom_site_fract_z
_atom_site_occupancy
_atom_site_B_iso_or_equiv
k      0.000   0.000   0.000    0.51000    1.099
o      0.000   0.000   0.000    0.49000    1.099
fe      0.167   -0.167   -0.167    1.00000    1.980
s      0.000   0.000   0.309    1.00000    1.389
o      0.000   0.000   0.394    1.00000    3.200
o      0.222   -0.222   -0.056    1.00000    2.499
o      0.127   -0.127   0.136    1.00000    0.930
h      0.177   -0.177   0.111    1.00000    1.999
_cell_measurement_wavelength    1.541874
_cell_measurement_radiation   'x-rays'
_exptl_crystal_density_diffrn    3.012000
loop_
_pd_peak_d_spacing
_pd_peak_intensity
     5.952773        256.85
     5.712467        323.52
     5.100772        765.37
     3.665045         77.24
     3.551228         50.41
     3.120945        754.56
     3.084738       1000.00
     3.015950         14.55
     2.976387        107.22
     2.856233        184.05
     2.550386        219.63
     2.376160         12.92
     2.328827         15.19
     2.310467         11.59
     2.284215        300.27
     2.252892          2.18
     2.116015          3.98
     2.093414          0.75
     2.029722          4.15
     1.984258        308.29
     1.965585          3.06
     1.938539         96.55
     1.904156         51.57
     1.832523        309.14
     1.775614         43.57
     1.751412          2.31
     1.744936         52.70
     1.724602         40.82
     1.713601         18.69
     1.700257          0.12
     1.689713         18.75
     1.654510          0.23
     1.628486         30.90
     1.597958         46.00
     1.580250         39.24
     1.566093         33.29
     1.560472         50.47
     1.542369        147.14
     1.513045          0.48
     1.507975        177.99
     1.488193         53.48
     1.451111         16.28
     1.440126         26.51
     1.435752         26.81
     1.429386         25.86
     1.428117          1.92
     1.415433         28.07
     1.398554         29.26
     1.394547          0.00
     1.385257          5.67
     1.378857          9.27
     1.360178          5.52
     1.346240         71.12
     1.340363          0.93
     1.331692         20.58
     1.330665          2.16
     1.320387         25.00
     1.306653          0.30
     1.290724         13.16
     1.275193          3.55
     1.266139          0.00
     1.255898          0.69
     1.251630         51.85
     1.246402          1.59
     1.228040          9.98
     1.221682         17.25
     1.217434          2.89
     1.217285          0.15
     1.204375          0.65
     1.201957          0.20
     1.196739         21.61
     1.194667         15.03
     1.190555          0.08
     1.188080          9.08
     1.183743          7.86
     1.166743          0.17
     1.164414         25.76
     1.155361         30.41
     1.155233         27.27
     1.142493          0.36
     1.142107          5.30
     1.137628          0.32
     1.132311         33.60
     1.130182          7.65
     1.127069          1.82
     1.126446         14.32
     1.123247          0.00
     1.120191          9.08
     1.111768         13.39
     1.109752          0.04
     1.101796          1.39
     1.092195          3.80
     1.090727          0.81
     1.090391          8.52
     1.081856          6.14
     1.077281          1.07
     1.063896          0.25
     1.058007         13.60
     1.056159          0.08
     1.055245         15.10
     1.046707         10.85
     1.041682          0.15
     1.040315          3.97
     1.035957          2.57
     1.033558          3.41
     1.028246          0.53
     1.020154          0.00
     1.016501          0.58
     1.014861         18.52
     1.014050          0.54
     1.013964          0.04
     1.006466          4.63
##############################################################################
###                            Comments                                    ###
##############################################################################
###   Diffraction pattern calculated by Match!. 
###   I/Ic calculated by Match!. 
##############################################################################


