##############################################################################
###               Crystal structure data exported by Match!                ###
##############################################################################
###                           Data published by:                           ###
###                                                                        ###
###               COD (Crystallography Open Database)
##############################################################################
data_9016095
_citation_journal_full    'Physics and Chemistry of Minerals'
_citation_journal_volume  '39'
_citation_page_first  '399'
_citation_page_last   '412'
_citation_year  '2012'
_citation_title  'Crystal-structure properties and the molecular nature ofhydrostatically compressed realgarNote: P = 3.53 GPa'
loop_
_publ_author_name
  'Hejny C.'
  'Sagl R.'
  'Tobbens D. M.'
  'Miletich R.'
  'Wildner M.'
  'Nasdala L.'
  'Ullrich A.'
  'Balic-Zunic T'
_chemical_formula_sum  'As S'
_chemical_name_mineral  'Realgar'
_symmetry_space_group_name_H-M 'P 1 21/n 1'
_space_group_IT_number 14
_space_group_crystal_system 'monoclinic'
loop_
_symmetry_equiv_pos_as_xyz
   'x, y, z'
   '-x+0.5, y+0.5, -z+0.5'
   '-x, -y, -z'
   'x+0.5, -y+0.5, z+0.5'
_cell_length_a        8.87300
_cell_length_b       12.78900
_cell_length_c        6.25100
_cell_angle_alpha    90.0000
_cell_angle_beta    107.0000
_cell_angle_gamma    90.0000
loop_
_atom_site_label
_atom_site_fract_x
_atom_site_fract_y
_atom_site_fract_z
_atom_site_occupancy
_atom_site_B_iso_or_equiv
as      0.109   -0.028   0.757    1.00000    1.326
as      0.433   0.136   0.854    1.00000    1.437
as      0.328   0.127   0.189    1.00000    1.460
as      0.030   0.164   0.700    1.00000    1.413
s      0.343   -0.017   0.689    1.00000    1.136
s      0.209   -0.029   0.127    1.00000    1.934
s      0.238   0.232   0.622    1.00000    1.531
s      0.106   0.219   0.058    1.00000    1.831
_cell_measurement_wavelength    1.541874
_cell_measurement_radiation   'x-rays'
_exptl_crystal_density_diffrn    4.190000
loop_
_pd_peak_d_spacing
_pd_peak_intensity
     7.070560        112.37
     6.394500         58.10
     5.740608        529.46
     5.415468        429.69
     5.237195        288.11
     5.106767       1000.00
     4.366854         72.52
     4.327394          0.73
     4.271754         17.28
     4.242646         22.73
     4.099092          5.08
     4.026846         98.65
     3.874997        278.13
     3.809281         68.88
     3.583865         63.07
     3.535280         73.56
     3.470840         53.87
     3.431194        159.04
     3.422511          1.28
     3.197250         10.80
     3.036907         58.08
     3.030545         22.20
     3.007174        590.19
     2.991905        402.60
     2.988930        660.85
     2.978655         60.55
     2.942328          7.52
     2.910500        124.48
     2.906195        565.67
     2.870304          0.02
     2.833945         93.55
     2.819327        359.12
     2.803589        409.21
     2.800635        254.06
     2.793240          0.74
     2.762354        810.86
     2.761697         43.37
     2.707734        164.01
     2.645764        208.89
     2.618597         19.29
     2.586686        148.05
     2.571509        644.40
     2.553383        153.18
     2.540048        227.55
     2.517409          5.30
     2.513327        144.31
     2.487428          3.32
     2.448956        289.63
     2.447324         80.84
     2.401900         36.98
     2.401281         69.72
     2.398133        192.54
     2.380916         37.96
     2.356853        173.53
     2.351578         14.18
     2.336377        241.40
     2.308986         97.11
     2.280850        173.98
     2.272249         89.08
     2.232761        134.45
     2.214544          8.80
     2.211764         44.64
     2.201921          6.27
     2.190509         17.88
     2.183427         24.81
     2.181100          4.12
     2.171740         65.47
     2.165061          0.25
     2.163697         36.35
     2.150543          1.79
     2.135877          0.03
     2.133380          2.26
     2.131500        121.79
     2.121323         15.10
     2.118598        147.58
     2.118454         83.19
     2.092730         15.52
     2.091749         76.27
     2.079905        157.73
     2.067274        196.46
     2.052933         94.60
     2.049546         41.08
     2.033068        150.72
     2.030300         13.28
     2.022962        187.93
     2.013423         86.24
     2.013313          2.64
     2.007856         41.88
     2.007690         26.04
     1.998204         49.66
     1.977907          0.04
     1.977896          2.80
     1.968866         28.84
     1.964489         21.21
     1.963255          0.03
     1.951061         81.42
     1.943356          0.31
     1.940406         63.92
     1.937498         50.82
     1.929405         16.64
     1.920061          7.05
     1.913536         74.19
     1.912128          0.03
     1.909602          0.01
     1.904641         61.43
     1.902395         19.15
     1.899179          0.08
     1.897119          8.37
     1.892470         13.77
     1.887841         26.75
     1.871885         33.91
     1.869285         21.71
     1.846575         11.90
     1.835064          0.89
     1.833214          5.93
     1.824745         30.56
     1.820498         66.56
     1.819933          5.03
     1.818388          0.06
     1.806450         15.82
     1.805156          6.88
     1.791933          4.19
     1.789665          0.63
     1.786068         22.11
     1.774530         67.05
     1.767640         13.54
     1.766062          7.40
     1.765634         87.37
     1.759884        113.22
     1.757691         50.98
     1.754699        127.47
     1.749546        174.12
     1.747219          7.68
     1.745732          7.58
     1.743461         16.80
     1.740957          1.13
     1.739304         45.57
     1.735420         98.71
     1.724992          1.64
     1.718770        131.73
     1.715597         36.39
     1.713933          0.03
     1.711256         12.46
     1.710326         20.04
     1.709910        127.90
     1.702256         48.11
     1.691083         48.99
     1.690329          0.76
     1.687073        143.50
     1.683140          7.29
     1.682312          8.28
     1.678026          0.09
     1.677526         39.04
     1.673786         96.03
     1.666504         10.23
     1.666210          1.51
     1.664059         29.90
     1.651926         17.57
     1.647705          3.90
     1.646249         42.71
     1.641933         79.69
     1.640276         23.87
     1.638262         46.31
     1.632836          9.34
     1.616498         30.03
     1.613721        158.59
     1.605668        121.91
     1.599708         45.84
     1.599042         10.65
     1.598625         52.90
     1.592846          2.08
     1.591550         46.23
     1.584803        188.36
     1.583310         56.71
     1.579098        128.58
     1.576715         20.21
     1.576504          2.71
     1.573433          4.14
     1.571920         56.31
     1.570987         33.61
     1.569060          0.40
     1.566190         25.95
     1.559696         25.55
     1.558846          4.35
     1.551573         80.28
     1.548225          4.36
     1.546745         16.57
     1.544356          0.17
     1.541262         42.87
     1.540041          5.79
     1.540026          2.03
     1.535379         52.43
     1.534676         29.74
     1.532212          0.03
     1.531846          0.05
     1.531444         14.44
     1.522148          3.49
     1.520975          7.92
     1.520581          0.51
     1.519966         17.16
     1.518702         34.71
     1.518453         15.11
     1.515273          2.92
     1.509343         70.16
     1.507599          2.29
     1.506666          3.32
     1.504650          5.87
     1.503587          0.16
     1.499572          6.52
     1.498986          7.99
     1.495953          7.11
     1.494465          0.38
     1.493257          2.19
     1.492092         35.82
     1.489698          4.52
     1.489327         64.36
     1.488621         37.99
     1.487771          0.24
     1.485475          1.14
     1.484365          8.76
     1.478764          8.28
     1.477075         17.34
     1.476246         10.67
     1.476099          1.26
     1.471164         16.44
     1.466583          1.43
     1.464739          2.68
     1.462773         38.55
     1.458005          4.95
     1.457804          0.15
     1.455618          2.09
     1.455250         12.12
     1.453097          4.03
     1.451866         10.02
     1.443808         31.17
     1.442465          4.14
     1.441600          9.96
     1.441265          3.88
     1.438483         53.51
     1.435152         77.65
     1.433376          0.11
     1.432738         40.82
     1.431685          8.65
     1.430629          2.23
     1.429399          8.05
     1.426200         31.82
     1.423918         26.46
     1.422681          2.85
     1.418864         10.90
     1.417203         54.82
     1.416972          8.68
     1.414215          0.31
     1.414112          0.96
     1.410314          7.24
     1.409664         12.55
     1.409037          7.90
     1.407108          1.58
     1.405647          0.26
     1.401795         33.38
     1.401484         19.53
     1.400696          1.94
     1.400317          6.82
     1.396620          2.08
     1.395921         29.98
     1.395712          2.62
     1.395037         34.59
     1.395015         54.79
     1.391715          0.80
     1.391546          1.19
     1.386174          0.25
     1.384345          0.01
     1.382477          4.82
     1.381472         25.69
     1.381177         82.96
     1.380848          0.84
     1.379369          4.00
     1.378546          0.10
     1.375391         20.79
     1.374346          1.95
     1.372739         59.91
     1.372639         16.57
     1.370764         16.91
     1.370724         43.53
     1.366364          0.49
     1.363773          0.31
     1.363570         11.23
     1.360604         15.81
     1.360144          1.81
     1.358916          0.81
     1.353867          6.81
     1.350074          7.93
     1.347831          1.40
     1.347431         52.29
     1.346635         17.42
     1.342282          0.25
     1.341443          8.23
     1.341290          2.01
     1.340334          3.70
     1.337423          5.35
     1.333014          4.40
     1.331648         16.60
     1.331580         11.69
     1.327650          1.70
     1.326430          3.86
     1.325921         12.27
     1.323930          6.02
     1.322882          2.24
     1.321418          2.61
     1.314844          2.62
     1.314351          6.30
     1.314189          0.03
     1.313935         10.80
     1.312441         29.28
     1.309299          0.62
     1.306664          0.64
     1.304926          0.89
     1.303148          5.98
     1.295982         12.54
     1.295839          0.79
     1.295423          0.37
     1.294578          2.71
     1.293343          9.63
     1.293147         41.10
     1.292187         13.62
     1.291666          5.87
     1.291086          0.08
     1.290357         20.17
     1.289238          0.92
     1.289029          0.88
     1.287497          8.46
     1.285755          4.45
     1.285046          2.15
     1.284916          0.08
     1.283348          3.62
     1.278900         10.44
     1.278625          0.69
     1.276692          5.67
     1.276571          0.13
     1.273483         32.68
     1.272928          7.19
     1.271513          0.40
     1.270585          3.54
     1.270024          0.92
     1.269760          0.54
     1.268359          0.34
     1.267492          0.42
     1.264617          0.92
     1.263447         24.28
     1.262045          5.38
     1.260419          6.98
     1.260342          6.12
     1.258704          0.27
     1.256663         36.36
     1.256439          0.45
     1.255945          5.32
     1.254587          4.66
     1.254295          0.54
     1.253069         10.45
     1.252732          6.59
     1.251598         22.04
     1.250600         30.43
     1.248298          6.82
     1.247882          4.39
     1.246933         10.53
     1.246631          3.93
     1.246000          2.52
     1.244194         30.17
     1.243930          2.67
     1.243714          4.12
     1.243404          0.68
     1.239825          0.88
     1.238750          0.13
     1.238276         14.28
     1.238161          5.11
     1.237638          0.12
     1.237542          3.45
     1.236065         14.13
     1.235082          7.34
     1.234806          5.45
     1.232979          0.51
     1.230362          0.13
     1.229091          4.84
     1.228842          0.56
     1.228124          2.66
     1.226897         27.28
     1.226832          3.57
     1.226461          1.51
     1.224478          4.45
     1.224036          5.92
     1.223662          2.59
     1.220720          2.62
     1.219979          5.52
     1.219638          0.00
     1.216140          3.80
     1.216112          0.56
     1.215197         33.12
     1.213643         17.88
     1.212408          1.10
     1.210186         19.11
     1.210129          7.44
     1.207254          0.10
     1.206776          0.03
     1.205945         26.84
     1.203578          7.33
     1.202443          9.66
     1.200950          3.21
     1.200641          4.03
     1.199607          6.67
     1.199542          0.54
     1.199067          2.39
     1.198283          2.60
     1.197625          0.00
     1.197477         14.97
     1.197454          6.84
     1.195802          5.68
     1.194622          6.40
     1.190974         27.65
     1.190458          8.75
     1.190382          0.81
     1.189546          2.25
     1.187754          3.18
     1.187733          4.21
     1.186584          0.99
     1.186229          1.64
     1.186053          2.56
     1.183311          0.18
     1.182809          4.94
     1.182537          0.03
     1.182033          2.32
     1.180816          0.08
     1.180764         11.76
     1.180598          1.92
     1.180154          0.49
     1.178427          2.18
     1.175789          5.35
     1.175208          9.49
     1.173901          0.11
     1.173838          1.99
     1.173657          1.68
     1.173554         15.01
     1.173312          1.89
     1.172793         10.92
     1.172592          4.64
     1.172140          0.07
     1.171276          0.39
     1.170570          6.72
     1.168467          8.82
     1.168188          0.02
     1.167633          2.26
     1.167223          0.36
     1.166285          4.62
     1.166000         45.23
     1.165964         10.72
     1.165313          1.38
     1.164706          0.04
     1.164289          0.51
     1.163642         10.89
     1.158298          0.47
     1.157570         17.56
     1.156947          4.32
     1.156762          0.35
     1.155956          9.68
     1.155084         29.01
     1.154700          0.44
     1.154493         14.05
     1.151885          4.08
     1.151874          4.49
     1.151157          0.00
     1.149817          0.00
     1.148287          0.12
     1.148122          0.03
     1.146866          2.78
     1.143731          8.19
     1.143523          7.38
     1.143127          4.49
     1.142500          2.35
     1.141252          8.04
     1.141181          7.97
     1.140837         11.15
     1.140425          3.40
     1.139501          4.16
     1.138773          1.88
     1.138132          0.80
     1.137256          5.16
     1.136124          0.93
     1.134285          1.74
     1.133651          3.06
     1.133456          0.00
     1.132880          5.83
     1.132137         14.58
     1.131775          9.95
     1.130051          1.13
     1.129422          0.18
     1.129018         17.18
     1.128591          0.11
     1.126410          0.24
     1.125740          3.13
     1.125634          0.25
     1.123984         13.74
     1.123153          0.33
##############################################################################
###                            Comments                                    ###
##############################################################################
###   Baia Sprie mine, Romania
###   Diffraction pattern calculated by Match!. 
###   I/Ic calculated by Match!. 
##############################################################################


