##############################################################################
###               Crystal structure data exported by Match!                ###
##############################################################################
###                           Data published by:                           ###
###                                                                        ###
###               COD (Crystallography Open Database)
##############################################################################
data_8103788
_citation_journal_full    'Zeitschrift fuer Kristallographie (149,1979-)'
_citation_journal_volume  '216'
_citation_page_first  '409'
_citation_page_last   '412'
_citation_year  '2001'
_citation_title  'A new Rietveld refinement of kappa-(Al2 O3)'
loop_
_publ_author_name
  'Smrcok L.'
  'Halvarsson M.'
  'Langer V.'
  'Ruppi S.'
_chemical_formula_sum  'Al2 O3'
_chemical_name_common  'Alumina'
_symmetry_space_group_name_H-M 'P n a 21'
_space_group_IT_number 33
_space_group_crystal_system 'orthorhombic'
loop_
_symmetry_equiv_pos_as_xyz
   'x, y, z'
   '-x, -y, z+0.5'
   '-x+0.5, y+0.5, z+0.5'
   'x+0.5, -y+0.5, z'
_cell_length_a        4.83400
_cell_length_b        8.30960
_cell_length_c        8.93530
_cell_angle_alpha    90.0000
_cell_angle_beta     90.0000
_cell_angle_gamma    90.0000
_cell_formula_units_Z 8
loop_
_atom_site_label
_atom_site_fract_x
_atom_site_fract_y
_atom_site_fract_z
_atom_site_occupancy
_atom_site_B_iso_or_equiv
al      0.316   0.658   0.373    1.00000    1.000
o      -0.020   0.323   0.517    1.00000    1.000
o      0.154   0.495   0.266    1.00000    1.000
o      0.164   0.841   0.271    1.00000    1.000
o      0.508   0.509   0.505    1.00000    1.000
al      0.178   0.838   0.647    1.00000    1.000
al      0.314   0.350   0.571    1.00000    1.000
o      0.480   0.853   0.498    1.00000    1.000
o      0.163   0.163   0.243    1.00000    1.000
al      0.331   0.025   0.378    1.00000    1.000
_cell_measurement_wavelength    1.541874
_cell_measurement_radiation   'x-rays'
_exptl_crystal_density_diffrn    3.773000
loop_
_pd_peak_d_spacing
_pd_peak_intensity
     6.084962        135.28
     4.467650         55.10
     4.178408          9.44
     4.154800          0.35
     3.785005         25.59
     3.150894         64.91
     3.051715        139.88
     3.042481        256.93
     2.971549         29.32
     2.803768        500.78
     2.645665          2.10
     2.574923       1000.00
     2.425336        100.54
     2.417000         82.31
     2.403292         51.05
     2.333148        133.54
     2.320817         35.93
     2.320811        191.38
     2.246284          6.39
     2.233825         38.07
     2.164472        119.46
     2.125842        223.06
     2.116497        571.35
     2.089204          5.72
     2.077400         49.14
     2.059513        188.28
     2.034336          3.01
     2.028321          6.57
     1.969976          0.29
     1.967485          0.21
     1.908618         30.83
     1.892503         28.04
     1.883715         61.17
     1.876785        141.48
     1.870346        250.00
     1.866512          6.29
     1.830673         82.96
     1.822326         29.64
     1.821138          6.37
     1.784452         20.07
     1.755162         66.86
     1.747114         33.46
     1.710381         42.32
     1.686412          0.29
     1.643092         20.48
     1.640492        143.97
     1.636187        145.34
     1.633899         36.72
     1.609428         11.40
     1.606981          5.93
     1.581867          6.61
     1.575447         17.06
     1.571632          0.04
     1.557646          7.23
     1.554453          0.14
     1.553715          5.04
     1.551515          3.04
     1.547871          9.04
     1.525857          0.12
     1.521241          5.16
     1.502310          0.41
     1.501648         10.87
     1.491156         55.56
     1.489217         16.77
     1.485774         16.42
     1.482573          5.18
     1.481516         20.36
     1.451280        115.53
     1.451084         13.29
     1.436946        183.97
     1.434049        425.25
     1.423959         14.72
     1.415931          2.51
     1.411505          4.57
     1.402784          1.19
     1.401884          2.43
     1.397054          2.32
     1.392803        410.15
     1.392626         17.97
     1.389989          4.97
     1.384933        174.05
     1.376184         13.38
     1.369430          0.29
     1.358020          7.35
     1.353625          9.65
     1.346408         49.13
     1.341340        109.94
     1.331370         11.20
     1.329685          1.93
     1.322832          0.10
     1.316833         15.22
     1.309303         94.64
     1.304500          1.98
     1.290958          1.18
     1.287462          5.33
     1.285377          1.31
     1.275921          2.56
     1.275520          1.64
     1.273222          0.53
     1.267875         27.17
     1.265884         46.27
     1.261672         23.51
     1.261668          1.11
     1.260489          1.51
     1.253369         11.64
     1.246615          0.96
     1.244217         45.44
     1.224468          4.29
     1.220777         25.04
     1.216992          3.47
     1.215464          3.89
     1.212668          1.57
     1.210347          0.36
     1.208500          0.52
     1.201646         13.59
     1.197596         11.45
     1.195919          4.49
     1.190925         10.28
     1.185349          0.71
     1.184482          2.42
     1.183076         10.87
     1.181887         10.04
     1.181779          9.21
     1.180167          2.17
     1.177068          3.48
     1.176746          3.01
     1.174103          5.19
     1.170738         16.69
     1.167505          6.35
     1.166574         20.83
     1.160409          0.40
     1.160406         20.16
     1.159291          1.42
     1.156855          0.83
     1.155245         38.41
     1.152840          1.16
     1.152834          2.86
     1.150745          3.27
     1.149952          7.36
     1.147280          0.19
     1.143652          5.28
     1.143357          3.27
     1.128731          0.25
     1.127326          0.95
     1.123142          2.62
     1.119919          7.60
     1.119830         13.12
     1.118460         15.46
     1.116912         31.21
     1.116269          2.40
     1.114370         23.14
     1.109798          0.90
     1.107663          2.23
     1.106159          0.33
     1.102728          3.19
     1.099249          1.42
     1.098557          3.79
     1.089251          7.69
     1.086979          0.79
     1.084311          1.59
     1.082236          0.62
     1.081245          2.96
     1.080997          2.22
     1.079028          0.86
     1.078618          2.20
     1.078369          0.43
     1.075112          0.66
     1.075109          1.85
     1.067650          1.91
     1.065511          4.17
     1.062921          4.41
     1.061046          1.70
     1.058249         32.57
     1.058015          1.45
     1.057634          0.69
     1.054330          1.68
     1.052730         21.82
     1.050298          0.01
     1.045274          0.20
     1.044602          0.08
     1.043116          0.70
     1.038700          0.86
     1.038193          0.26
     1.037536          0.02
     1.036954          9.72
     1.036442          1.33
     1.029757          0.73
     1.027271          0.26
     1.024452          1.55
     1.022425          0.46
     1.017238         12.42
     1.017168          1.67
     1.015521          0.05
     1.014160          3.73
     1.013892          0.14
     1.012873          0.27
     1.012329         26.06
     1.011717          0.78
     1.009025          3.43
     1.008025         20.20
     1.006428          8.99
##############################################################################
###                            Comments                                    ###
##############################################################################
###   Diffraction pattern calculated by Match!. 
###   I/Ic calculated by Match!. 
###   Space group has been derived from given symmetry operations. 
##############################################################################


