##############################################################################
###               Crystal structure data exported by Match!                ###
##############################################################################
###                           Data published by:                           ###
###                                                                        ###
###               COD (Crystallography Open Database)
##############################################################################
data_9004142
_citation_journal_full    'The Canadian Mineralogist'
_citation_journal_volume  '17'
_citation_page_first  '77'
_citation_page_last   '85'
_citation_year  '1979'
_citation_title  'Polyhedral thermal expansion in the TiO2 polymorphs: Refinementof the crystal structure of rutile and brookite at high temperatureSample at 300 degrees C'
loop_
_publ_author_name
  'Meagher E. P.'
  'Lager G. A.'
_chemical_formula_sum  'O2 Ti'
_chemical_name_mineral  'Rutile'
_symmetry_space_group_name_H-M 'P 42/m n m'
_space_group_IT_number 136
_space_group_crystal_system 'tetragonal'
loop_
_symmetry_equiv_pos_as_xyz
   'x, y, z'
   '-y+0.5, x+0.5, z+0.5'
   '-x, -y, z'
   'y+0.5, -x+0.5, z+0.5'
   'x+0.5, -y+0.5, -z+0.5'
   '-x+0.5, y+0.5, -z+0.5'
   'y, x, -z'
   '-y, -x, -z'
   '-x, -y, -z'
   'y+0.5, -x+0.5, -z+0.5'
   'x, y, -z'
   '-y+0.5, x+0.5, -z+0.5'
   '-x+0.5, y+0.5, z+0.5'
   'x+0.5, -y+0.5, z+0.5'
   '-y, -x, z'
   'y, x, z'
_cell_length_a        4.60300
_cell_length_b        4.60300
_cell_length_c        2.96600
_cell_angle_alpha    90.0000
_cell_angle_beta     90.0000
_cell_angle_gamma    90.0000
loop_
_atom_site_label
_atom_site_fract_x
_atom_site_fract_y
_atom_site_fract_z
_atom_site_occupancy
_atom_site_B_iso_or_equiv
ti      0.000   0.000   0.000    1.00000    0.859
o      0.304   0.304   0.000    1.00000    0.810
_cell_measurement_wavelength    1.541874
_cell_measurement_radiation   'x-rays'
_exptl_crystal_density_diffrn    4.221000
loop_
_pd_peak_d_spacing
_pd_peak_intensity
     3.254813       1000.00
     2.493227        450.05
     2.301500         64.74
     2.192287        183.82
     2.058524         64.34
     1.691130        527.92
     1.627406        157.30
     1.483000         72.90
     1.455596         72.94
     1.426749          5.37
     1.362785        178.93
     1.349520         87.24
     1.306718         10.27
     1.276643          2.06
     1.246613         17.81
     1.203266         10.28
     1.172631         35.23
     1.150750         24.70
     1.116392          8.82
     1.096144         58.93
     1.084938         31.56
     1.044830         54.42
     1.038815         41.53
     1.029262         23.74
     1.018910          0.53
##############################################################################
###                            Comments                                    ###
##############################################################################
###   Diffraction pattern calculated by Match!. 
###   I/Ic calculated by Match!. 
###   Space group has been derived from given symmetry operations. 
##############################################################################


