##############################################################################
###               Crystal structure data exported by Match!                ###
##############################################################################
###                           Data published by:                           ###
###                                                                        ###
###               COD (Crystallography Open Database)
##############################################################################
data_9012287
_citation_journal_full    'Journal of the American Chemical Society'
_citation_journal_volume  '65'
_citation_page_first  '1107'
_citation_page_last   '1110'
_citation_year  '1943'
_citation_title  'The crystal structure of Pb3O4 Locality: synthetic'
loop_
_publ_author_name
  'Gross S. T.'
_chemical_formula_sum  'O4 Pb3'
_chemical_name_mineral  'Minium'
_symmetry_space_group_name_H-M 'P -4 b 2'
_space_group_IT_number 117
_space_group_crystal_system 'tetragonal'
loop_
_symmetry_equiv_pos_as_xyz
   'x, y, z'
   'y, -x, -z'
   '-x, -y, z'
   '-y, x, -z'
   'y+0.5, x+0.5, -z'
   '-y+0.5, -x+0.5, -z'
   '-x+0.5, y+0.5, z'
   'x+0.5, -y+0.5, z'
_cell_length_a        8.86000
_cell_length_b        8.86000
_cell_length_c        6.66000
_cell_angle_alpha    90.0000
_cell_angle_beta     90.0000
_cell_angle_gamma    90.0000
loop_
_atom_site_label
_atom_site_fract_x
_atom_site_fract_y
_atom_site_fract_z
_atom_site_occupancy
_atom_site_B_iso_or_equiv
pb      0.000   0.500   0.000    1.00000    1.000
pb      0.000   0.500   0.500    1.00000    1.000
pb      0.140   0.165   0.250    1.00000    1.000
o      0.170   0.330   0.500    1.00000    1.000
o      0.170   0.330   0.000    1.00000    1.000
o      0.400   0.100   0.250    1.00000    1.000
_cell_measurement_wavelength    1.541874
_cell_measurement_radiation   'x-rays'
_exptl_crystal_density_diffrn    8.710000
loop_
_pd_peak_d_spacing
_pd_peak_intensity
     6.264966        122.87
     4.430000         17.28
     3.962312         13.04
     3.688537         22.94
     3.405230       1000.00
     3.330000         51.03
     3.132483        135.21
     2.940437        365.18
     2.801778        494.50
     2.661835        260.89
     2.582555          7.47
     2.549272          0.34
     2.457322         26.37
     2.305402         30.13
     2.281633         51.33
     2.215000         13.98
     2.148866          1.53
     2.143883          1.64
     2.101806          8.57
     2.088322          9.36
     2.045051         94.83
     1.984731          3.99
     1.981156        109.22
     1.977249         24.16
     1.936733        196.50
     1.898920          9.62
     1.844268        229.26
     1.805566         10.54
     1.772000          3.35
     1.769203        259.28
     1.740000          2.16
     1.737589         18.69
     1.712424          9.80
     1.702615         14.61
     1.681309         10.48
     1.665000         67.62
     1.647307         10.03
     1.645261          0.42
     1.609142          4.88
     1.597245        127.72
     1.568006          3.18
     1.566241         45.05
     1.564309          4.07
     1.558554          1.83
     1.544013         36.20
     1.540482         61.84
     1.534986          1.41
     1.519477         20.27
     1.481411         16.59
     1.478145          3.98
     1.476667         53.61
     1.475047          0.06
     1.470219         24.32
     1.456575          6.05
     1.441655          3.21
     1.431334        116.33
     1.422941         17.17
     1.417299          0.04
     1.400889          2.88
     1.384916          4.52
     1.383699          1.95
     1.382366         16.65
     1.378390          6.43
     1.370890          0.13
     1.368301          4.92
     1.354769         30.41
     1.349896          1.25
     1.334496          9.53
     1.330918          4.09
     1.321829         63.28
     1.320771          0.05
     1.316151          0.89
     1.301865          4.05
     1.295541          0.06
     1.291277         39.70
     1.277778          5.92
     1.275587          0.82
     1.274636         45.25
     1.262569         42.27
     1.253896          8.90
     1.252993          9.21
     1.231390          0.36
     1.229512          1.77
     1.228661          0.30
     1.227727          0.07
     1.217842          9.64
     1.217015          9.75
     1.213397          1.84
     1.208272          6.40
     1.202973          0.56
     1.202176         10.09
     1.197190          7.45
     1.184729          0.07
     1.174277         18.05
     1.172722         54.14
     1.171027          2.87
     1.170291          0.18
     1.163375         41.23
     1.152701         58.65
     1.146022          3.24
     1.143068         11.27
     1.141498          1.00
     1.140816         27.80
     1.135077          0.04
     1.134407          2.93
     1.132140         11.70
     1.122360         13.68
     1.118300          7.93
     1.110000          1.47
     1.107500          4.71
     1.105391          1.40
     1.104772         37.75
     1.098948          1.10
     1.098280          3.21
     1.096282          4.53
     1.092978         14.49
     1.092498          7.48
     1.091186          0.24
     1.084286         18.59
     1.076715         13.52
     1.075002          4.40
     1.074433          3.19
     1.073808          5.27
     1.071941          2.42
     1.068851          0.02
     1.067175          5.19
     1.064734          1.83
     1.064181          1.69
     1.060718          1.92
     1.057128          2.05
     1.050903          1.84
     1.046255          3.51
     1.044161         12.36
     1.043588          0.88
     1.036985          0.54
     1.035253         28.45
     1.034744          0.03
     1.031964          0.11
     1.030455          2.40
     1.029954          2.89
     1.024638          1.99
     1.022525         15.91
     1.017854          3.66
     1.011584          2.08
     1.010163          6.10
##############################################################################
###                            Comments                                    ###
##############################################################################
###   Diffraction pattern calculated by Match!. 
###   I/Ic calculated by Match!. 
##############################################################################


