##############################################################################
###               Crystal structure data exported by Match!                ###
##############################################################################
###                           Data published by:                           ###
###                                                                        ###
###               COD (Crystallography Open Database)
##############################################################################
data_9013729
_citation_journal_full    'American Mineralogist'
_citation_journal_volume  '95'
_citation_page_first  '348'
_citation_page_last   '361'
_citation_year  '2010'
_citation_title  'Factors responsible for crystal-chemical variations in the solid solutionsfrom illite to aluminoceladonite and from glauconite to celadoniteLocality: Baltic region, RussiaSample Name: 68-69'
loop_
_publ_author_name
  'Drits V. A.'
  'Zviagina B. B.'
  'McCarty D. K.'
  'Salyn A. L.'
_chemical_formula_sum  'Al2 H2 K O12 Si4'
_chemical_name_mineral  'Glauconite'
_symmetry_space_group_name_H-M 'C 1 2/m 1'
_space_group_IT_number 12
_space_group_crystal_system 'monoclinic'
loop_
_symmetry_equiv_pos_as_xyz
   'x, y, z'
   'x+0.5, y+0.5, z'
   '-x, y, -z'
   '-x+0.5, y+0.5, -z'
   '-x, -y, -z'
   '-x+0.5, -y+0.5, -z'
   'x, -y, z'
   'x+0.5, -y+0.5, z'
_cell_length_a        5.24600
_cell_length_b        9.07600
_cell_length_c       10.18400
_cell_angle_alpha    90.0000
_cell_angle_beta    101.1000
_cell_angle_gamma    90.0000
loop_
_atom_site_label
_atom_site_fract_x
_atom_site_fract_y
_atom_site_fract_z
_atom_site_occupancy
_atom_site_B_iso_or_equiv
k      0.000   0.500   0.500    1.00000    1.000
al      0.500   0.167   0.000    1.00000    1.000
si      0.421   0.331   0.273    1.00000    1.000
o      0.360   0.321   0.111    1.00000    1.000
o      0.454   0.500   0.328    1.00000    1.000
o      0.693   0.249   0.335    1.00000    1.000
o      0.412   0.000   0.109    1.00000    1.000
_cell_measurement_wavelength    1.541874
_cell_measurement_radiation   'x-rays'
_exptl_crystal_density_diffrn    2.788000
loop_
_pd_peak_d_spacing
_pd_peak_intensity
     9.993485        242.56
     4.996742        196.66
     4.538000        471.75
     4.477738          3.52
     4.368377        334.75
     4.131943        188.54
     3.852640         35.86
     3.652506       1000.00
     3.359351        361.54
     3.331162        317.11
     3.087593        852.84
     2.916820        284.19
     2.685335        378.81
     2.617258        159.19
     2.608263        367.14
     2.586115        388.40
     2.573931        213.09
     2.498371         25.00
     2.491801         21.17
     2.481107         46.40
     2.465637         47.62
     2.410680        343.80
     2.384179        207.08
     2.356071         48.63
     2.269000         43.62
     2.267208         94.12
     2.257902          5.67
     2.238869         88.22
     2.224891          9.10
     2.212684        122.10
     2.188609          0.57
     2.184188         44.42
     2.158378        196.06
     2.127510         99.70
     2.110616         92.08
     2.065971          3.90
     2.041148          0.25
     2.021502         30.37
     1.998697        188.24
     1.994928         44.73
     1.962807        107.56
     1.950767         14.87
     1.926320         10.22
     1.899125          4.46
     1.875298          0.23
     1.870007          0.12
     1.829143          1.28
     1.826253         54.54
     1.750293         25.06
     1.728964          1.56
     1.722244         25.02
     1.721010          2.15
     1.716714         34.43
     1.714428          1.27
     1.711893          2.49
     1.705585         18.76
     1.702076          2.57
     1.697841          6.33
     1.686083         20.32
     1.679676         42.07
     1.677675          0.06
     1.669620         10.20
     1.666906        261.06
     1.665581          8.86
     1.654221          7.78
     1.652243         92.34
     1.643636         42.28
     1.641715        119.30
     1.634055         56.14
     1.633036          1.68
     1.613275         11.76
     1.600487        101.55
     1.588601         73.80
     1.563849         19.06
     1.563591          2.13
     1.551988         32.93
     1.543796          9.77
     1.540111         59.47
     1.539099         33.39
     1.516646        100.64
     1.513703        225.53
     1.513215         60.47
     1.512667        116.47
     1.500718         12.96
     1.499801         25.61
     1.498206          1.50
     1.495630         18.42
     1.492579         18.00
     1.484456          5.98
     1.482088         28.16
     1.470341          8.49
     1.458410          4.19
     1.456327         11.47
     1.456126          1.63
     1.449256          3.19
     1.447779          0.09
     1.443072          8.15
     1.441363          0.11
     1.431317          8.98
     1.428843          1.01
     1.427641         11.45
     1.401332          2.27
     1.387727          1.31
     1.385874          3.71
     1.380563         67.81
     1.377314          0.06
     1.371825          0.00
     1.368664          0.11
     1.364883         59.97
     1.361839         21.99
     1.345504        108.92
     1.343362          6.79
     1.342668         27.20
     1.330071          5.12
     1.315899          0.11
     1.309663         77.78
     1.308742         39.75
     1.308629         43.23
     1.307172         17.84
     1.307044         73.68
     1.305287         34.87
     1.304131         92.10
     1.298695          2.34
     1.293973         38.38
     1.293058          0.04
     1.289679         11.02
     1.289084          0.15
     1.286965          0.00
     1.286643         18.55
     1.284213         37.58
     1.277279         46.88
     1.274292          0.43
     1.260904          2.20
     1.259212         16.92
     1.259049         11.77
     1.257492          0.00
     1.257392         12.23
     1.257305          0.50
     1.256711         30.10
     1.254800          3.26
     1.251707          3.44
     1.249186         20.35
     1.246973          8.80
     1.246389         15.79
     1.245901          0.33
     1.240553         25.06
     1.240269          0.03
     1.238138          4.15
     1.237851         27.61
     1.233917          2.52
     1.233096         15.82
     1.232818          0.00
     1.225480         18.59
     1.221376          7.85
     1.219855          2.32
     1.217502         17.14
     1.216641          4.15
     1.208354         29.75
     1.208051          0.04
     1.206170         19.45
     1.205952         30.89
     1.205340          0.00
     1.204388          0.54
     1.203837          8.01
     1.201880         19.30
     1.201443          4.44
     1.196170         13.56
     1.195017         12.35
     1.192089          0.61
     1.191492          3.64
     1.183863          9.87
     1.183162          2.60
     1.178036          4.56
     1.176066          5.45
     1.172057          3.80
     1.171961         19.12
     1.169585          6.82
     1.158448          0.90
     1.157510          1.33
     1.157322         17.60
     1.154250          2.41
     1.152972          3.42
     1.152431          5.88
     1.144930          1.09
     1.144481          6.11
     1.134500          0.04
     1.133677         11.98
     1.133604          0.00
     1.132657          7.07
     1.131430          0.19
     1.130584          1.61
     1.129605          1.71
     1.128951         35.44
     1.127259         11.93
     1.122554          1.14
     1.121599          2.10
     1.121219          0.82
     1.119784          1.97
     1.119435          2.00
     1.119222         11.28
     1.117622          0.59
     1.112445         56.48
     1.110387          0.91
     1.110105          1.61
     1.109085         19.58
     1.106342          1.50
     1.102480          0.03
     1.099449          3.08
     1.096155          0.23
     1.095558          0.40
     1.094305          1.62
     1.092423          3.11
     1.092094          0.20
     1.087543          1.09
     1.086605          6.61
     1.086120         10.14
     1.079189         50.27
     1.078569          1.15
     1.074425          1.36
     1.073926          0.21
     1.072816          0.12
     1.068536          2.64
     1.063755         21.14
     1.063432          0.85
     1.063088          0.56
     1.059588         30.24
     1.058136          0.07
     1.055308          1.54
     1.054893          0.25
     1.048239         13.75
     1.047406         15.22
     1.046478          1.13
     1.042383          0.01
     1.042161          1.13
     1.041426          1.85
     1.041334          3.80
     1.040915          1.97
     1.038252         18.25
     1.038132          0.54
     1.038007          0.10
     1.037905          0.28
     1.037169          0.49
     1.035681          0.34
     1.035079          1.70
     1.035065          0.51
     1.034471          1.76
     1.032986          3.39
     1.032520          1.53
     1.031092          4.44
     1.029198         16.35
     1.026981          2.18
     1.024433         12.34
     1.023011          7.15
     1.022100          6.80
     1.020574          8.13
     1.020233          0.06
     1.017427         17.87
     1.016955          2.63
     1.013729         15.28
     1.013348         12.17
     1.012047          3.31
     1.011923          0.27
     1.011220          0.49
     1.010751          0.02
##############################################################################
###                            Comments                                    ###
##############################################################################
###   Diffraction pattern calculated by Match!. 
###   I/Ic calculated by Match!. 
###   Space group has been derived from given symmetry operations. 
##############################################################################


