##############################################################################
###               Crystal structure data exported by Match!                ###
##############################################################################
###                           Data published by:                           ###
###                                                                        ###
###               COD (Crystallography Open Database)
##############################################################################
data_4124082
_citation_journal_full    'Journal of the American Chemical Society'
_citation_journal_volume  '126'
_citation_page_first  '9769'
_citation_page_last   '9775'
_citation_year  '2004'
_citation_title  'Chemical evaluation of hypothetical uninodal zeolites'
loop_
_publ_author_name
  'Foster M.D.'
  'Friedrichs O.D.'
  'Bell R.G.'
  'Paz F.A.A.'
  'Klinowski J.'
_chemical_formula_sum  'O2 Si'
_chemical_name_common  'Silica'
_symmetry_space_group_name_H-M 'P c c a'
_space_group_IT_number 54
_space_group_crystal_system 'orthorhombic'
loop_
_symmetry_equiv_pos_as_xyz
   'x, y, z'
   '-x+0.5, -y, z'
   'x+0.5, -y, -z+0.5'
   '-x, y, -z+0.5'
   '-x, -y, -z'
   'x+0.5, y, -z'
   '-x+0.5, y, z+0.5'
   'x, -y, z+0.5'
_cell_length_a        7.31778
_cell_length_b        4.43911
_cell_length_c        9.66304
_cell_angle_alpha    90.0000
_cell_angle_beta     90.0000
_cell_angle_gamma    90.0000
_cell_formula_units_Z 8
loop_
_atom_site_label
_atom_site_fract_x
_atom_site_fract_y
_atom_site_fract_z
_atom_site_occupancy
_atom_site_B_iso_or_equiv
o      0.000   0.000   0.000    1.00000    1.000
si      0.928   0.780   0.101    1.00000    1.000
o      0.500   0.316   0.250    1.00000    1.000
o      0.750   0.000   0.134    1.00000    1.000
o      0.000   0.500   0.000    1.00000    1.000
_cell_measurement_wavelength    1.541874
_cell_measurement_radiation   'x-rays'
_exptl_crystal_density_diffrn    2.542000
loop_
_pd_peak_d_spacing
_pd_peak_intensity
     4.831520        290.87
     4.439110         98.71
     4.031980        585.68
     3.658890        641.67
     3.532654       1000.00
     3.268863         12.65
     2.984619        133.15
     2.916865        116.44
     2.823424         36.35
     2.710107        273.48
     2.455831        166.79
     2.437707         16.83
     2.415760          7.12
     2.293992          6.99
     2.219555          7.03
     2.177488         74.81
     2.123197         20.73
     2.121904         45.79
     2.087306         42.07
     2.074480          0.02
     2.037957          0.06
     2.016911         23.94
     2.015990         44.04
     1.954958          2.07
     1.944409          3.59
     1.897688         25.71
     1.862119         10.97
     1.835568          0.57
     1.829445         30.64
     1.781175          0.31
     1.773185         42.79
     1.766327         50.04
     1.722193          6.16
     1.716448         28.15
     1.710902          1.74
     1.691436          0.78
     1.666104         80.29
     1.635022          1.15
     1.634432         46.37
     1.618462          2.24
     1.610507          6.34
     1.600938          2.91
     1.596435          0.38
     1.595129          9.40
     1.594787         69.48
     1.572866         13.74
     1.554376        129.18
     1.513950          0.03
     1.497517          9.03
     1.492310         92.00
     1.482554          6.42
     1.479703          0.15
     1.474033          4.64
     1.462638          4.90
     1.458433         18.31
     1.434284         21.35
     1.433622          3.13
     1.429446          2.46
     1.414838          5.80
     1.411712         20.49
     1.400702         32.34
     1.398925          0.39
     1.396883          5.75
     1.389112          0.00
     1.385570          4.94
     1.375800          1.96
     1.371773          3.79
     1.358155         18.15
     1.357804         13.61
     1.355053         24.70
     1.354045          5.19
     1.343993          4.90
     1.335782          7.35
     1.322468         23.96
     1.319615          4.34
     1.303512         50.71
     1.297290         58.03
     1.292979          0.71
     1.286330          0.39
     1.283311          0.15
     1.276205         30.96
     1.272804         44.60
     1.262083          2.29
     1.261812          4.49
     1.254420          1.36
     1.251754          3.43
     1.251179          1.13
     1.243462          1.43
     1.240144          1.82
     1.227915         37.31
     1.223864         20.95
     1.219630          2.63
     1.218853          0.54
     1.212187          3.46
     1.208834          4.31
     1.207880         13.57
     1.204772          0.05
     1.192870         16.85
     1.191754          1.97
     1.184549          8.65
     1.182535          0.04
     1.177551          0.38
     1.176050          3.75
     1.167436          3.68
     1.166362          1.18
     1.165504          0.49
     1.160022          0.05
     1.159672          5.02
     1.157458          1.00
     1.150997          0.00
     1.150484          4.51
     1.149654         19.15
     1.146996          6.86
     1.142685          0.09
     1.142416         14.39
     1.142408          0.19
     1.139966          4.13
     1.128421          1.30
     1.120740          1.94
     1.119192          0.89
     1.118624         13.61
     1.116324          0.17
     1.110524          1.36
     1.109777         12.63
     1.104717          0.51
     1.090314          5.61
     1.090226          0.82
     1.089621          1.25
     1.088744         32.61
     1.083446          2.02
     1.083125          5.99
     1.082438         13.67
     1.081611          4.92
     1.077739          0.04
     1.069987          6.59
     1.069471          1.65
     1.068888         11.05
     1.062408          0.38
     1.062002          5.08
     1.061598          4.15
     1.060952          0.10
     1.058496          0.08
     1.057405          1.61
     1.056547          0.12
     1.055645          4.78
     1.052255          1.83
     1.051626          1.62
     1.049974          5.41
     1.044298          0.00
     1.043653         15.13
     1.038706          0.31
     1.038624         14.42
     1.037240          7.39
     1.034571          1.66
     1.033128          2.16
     1.032751          0.42
     1.021753          0.57
     1.018979          0.38
     1.017229          0.96
     1.014487          0.06
     1.011966          3.86
     1.008594          0.71
     1.008455          2.08
     1.007995          4.72
##############################################################################
###                            Comments                                    ###
##############################################################################
###   Diffraction pattern calculated by Match!. 
###   I/Ic calculated by Match!. 
###   Space group has been derived from given symmetry operations. 
##############################################################################


