##############################################################################
###               Crystal structure data exported by Match!                ###
##############################################################################
###                           Data published by:                           ###
###                                                                        ###
###               COD (Crystallography Open Database)
##############################################################################
data_9003077
_citation_journal_full    'American Mineralogist'
_citation_journal_volume  '88'
_citation_page_first  '1423'
_citation_page_last   '1427'
_citation_year  '2003'
_citation_title  'Variation of hydrogen bonded O...O distances in goethite at high pressureSample at P = 0.5 GPa'
loop_
_publ_author_name
  'Nagai T.'
  'Kagi H.'
  'Yamanaka T.'
_chemical_formula_sum  'Fe H O2'
_chemical_name_mineral  'Goethite'
_symmetry_space_group_name_H-M 'P b n m'
_space_group_IT_number 62
_space_group_crystal_system 'orthorhombic'
loop_
_symmetry_equiv_pos_as_xyz
   'x, y, z'
   '-x, -y, z+0.5'
   'x+0.5, -y+0.5, -z'
   '-x+0.5, y+0.5, -z+0.5'
   '-x, -y, -z'
   'x, y, -z+0.5'
   '-x+0.5, y+0.5, z'
   'x+0.5, -y+0.5, z+0.5'
_cell_length_a        4.61520
_cell_length_b        9.98700
_cell_length_c        3.03160
_cell_angle_alpha    90.0000
_cell_angle_beta     90.0000
_cell_angle_gamma    90.0000
loop_
_atom_site_label
_atom_site_fract_x
_atom_site_fract_y
_atom_site_fract_z
_atom_site_occupancy
_atom_site_B_iso_or_equiv
fe      -0.049   0.147   0.250    1.00000    1.000
o      0.288   -0.197   0.250    1.00000    1.000
o      -0.198   -0.054   0.250    1.00000    1.000
_cell_measurement_wavelength    1.541874
_cell_measurement_radiation   'x-rays'
_cell_measurement_pressure       500000.000000
_exptl_crystal_density_diffrn    4.176000
loop_
_pd_peak_d_spacing
_pd_peak_intensity
     4.993500        135.63
     4.189486       1000.00
     3.389297        116.36
     2.699917        437.76
     2.591413        235.56
     2.533839         50.76
     2.496750        151.41
     2.456023        672.59
     2.307600         28.23
     2.259581         88.34
     2.248362         32.19
     2.196000        162.81
     2.094743         12.55
     2.016238         33.99
     1.927274         63.58
     1.896515          4.50
     1.833091          5.82
     1.805908        104.27
     1.778437         24.45
     1.723360        343.66
     1.694649         91.98
     1.664500         35.26
     1.607821         71.33
     1.568627        227.45
     1.565780          4.14
     1.520467          5.24
     1.515800        100.53
     1.510229         44.88
     1.479224         33.14
     1.470210         44.36
     1.459046         96.39
     1.450446          5.63
     1.425373         56.79
     1.396495         41.27
     1.391181          0.11
     1.383721         10.69
     1.371872         42.71
     1.363070         51.02
     1.359109         19.61
     1.351782          0.07
     1.349958         20.02
     1.322857         20.21
     1.321741         67.40
     1.309737          0.80
     1.295706         27.52
     1.268391         18.23
     1.266919          8.89
     1.256847          8.44
     1.248375          0.11
     1.247476         25.59
     1.243189          1.66
     1.233218          4.29
     1.228012          3.12
     1.218801          0.36
     1.213509          0.15
     1.205068          0.27
     1.202328         30.86
     1.184071          1.55
     1.168152          1.59
     1.154336         23.55
     1.153800          4.01
     1.146176         27.45
     1.130834          9.63
     1.129791         33.05
     1.129766          9.23
     1.126603          8.74
     1.124181          0.56
     1.120723         13.69
     1.119840          1.04
     1.098000         11.89
     1.090178          4.33
     1.089073          1.87
     1.078919          5.20
     1.073479          2.87
     1.072110          4.74
     1.069858         20.89
     1.058644         20.73
     1.055345         23.32
     1.054044          2.15
     1.047371          1.37
     1.046097          8.21
     1.032373         20.13
     1.027062         23.28
     1.025864         27.34
     1.016465         25.18
     1.013544         32.70
     1.008119         13.16
##############################################################################
###                            Comments                                    ###
##############################################################################
###   Diffraction pattern calculated by Match!. 
###   I/Ic calculated by Match!. 
###   Space group has been derived from given symmetry operations. 
##############################################################################


