##############################################################################
###               Crystal structure data exported by Match!                ###
##############################################################################
###                           Data published by:                           ###
###                                                                        ###
###               COD (Crystallography Open Database)
##############################################################################
data_4124071
_citation_journal_full    'Journal of the American Chemical Society'
_citation_journal_volume  '126'
_citation_page_first  '9769'
_citation_page_last   '9775'
_citation_year  '2004'
_citation_title  'Chemical evaluation of hypothetical uninodal zeolites'
loop_
_publ_author_name
  'Foster M.D.'
  'Friedrichs O.D.'
  'Bell R.G.'
  'Paz F.A.A.'
  'Klinowski J.'
_chemical_formula_sum  'O2 Si'
_chemical_name_common  'Silica'
_symmetry_space_group_name_H-M 'P 1'
_space_group_IT_number 1
_space_group_crystal_system 'triclinic'
loop_
_symmetry_equiv_pos_as_xyz
   'x, y, z'
_cell_length_a        3.19950
_cell_length_b        9.34791
_cell_length_c        9.51130
_cell_angle_alpha    88.4983
_cell_angle_beta     88.3395
_cell_angle_gamma    89.6815
_cell_formula_units_Z 8
loop_
_atom_site_label
_atom_site_fract_x
_atom_site_fract_y
_atom_site_fract_z
_atom_site_occupancy
_atom_site_B_iso_or_equiv
si      0.428   0.144   0.361    1.00000    1.000
o      0.938   0.182   0.428    1.00000    1.000
o      0.517   0.261   0.987    1.00000    1.000
o      0.543   0.004   0.260    1.00000    1.000
o      0.548   0.735   0.987    1.00000    1.000
o      0.969   0.444   0.799    1.00000    1.000
o      0.529   0.294   0.267    1.00000    1.000
o      0.438   0.920   0.465    1.00000    1.000
o      0.532   0.699   0.716    1.00000    1.000
o      0.652   0.991   0.719    1.00000    1.000
si      0.446   0.631   0.137    1.00000    1.000
si      0.473   0.848   0.624    1.00000    1.000
si      0.720   0.854   0.358    1.00000    1.000
o      0.517   0.483   0.055    1.00000    1.000
o      0.985   0.565   0.173    1.00000    1.000
o      0.398   0.085   0.528    1.00000    1.000
o      0.984   0.815   0.554    1.00000    1.000
si      0.428   0.369   0.834    1.00000    1.000
o      0.575   0.721   0.280    1.00000    1.000
si      0.718   0.351   0.119    1.00000    1.000
si      0.774   0.134   0.620    1.00000    1.000
o      0.531   0.270   0.697    1.00000    1.000
o      0.463   0.518   0.918    1.00000    1.000
si      0.763   0.636   0.856    1.00000    1.000
_cell_measurement_wavelength    1.541874
_cell_measurement_radiation   'x-rays'
_exptl_crystal_density_diffrn    2.808000
loop_
_pd_peak_d_spacing
_pd_peak_intensity
     9.504078          9.73
     9.344591          6.24
     6.751832       1000.00
     6.578153        947.84
     4.752039         19.79
     4.672296         33.39
     4.281109         14.46
     4.236946          0.53
     4.191891          1.68
     4.150406         20.38
     3.375916          0.24
     3.289076          0.09
     3.198120        276.94
     3.168026          0.81
     3.114864          0.04
     3.057887          6.71
     3.030280          2.76
     3.024352         19.97
     3.021376          0.13
     3.005027          2.44
     2.983043         85.45
     2.976800         75.54
     2.937383         23.36
     2.917450         15.51
     2.895155         13.01
     2.863857         30.69
     2.857644         25.39
     2.689388          6.60
     2.654431          8.76
     2.645021          9.23
     2.636788         23.68
     2.633204          4.87
     2.618466          4.09
     2.597483         47.31
     2.590934         23.36
     2.574519         25.35
     2.573975         34.08
     2.571672         20.43
     2.543546         19.08
     2.531713         29.25
     2.528207         30.22
     2.523144         21.12
     2.514548         27.39
     2.376019         14.05
     2.350005          5.80
     2.336148         13.96
     2.317213          1.16
     2.312135          6.80
     2.294439          6.22
     2.288549          3.00
     2.283871         12.09
     2.282446          2.06
     2.274125          8.89
     2.255038         11.36
     2.250611         12.98
     2.236771          8.93
     2.230025          3.06
     2.226057          7.86
     2.218928         16.33
     2.207290          6.31
     2.196413          4.10
     2.192718         18.41
     2.168099          6.88
     2.166701          1.30
     2.166174          5.18
     2.158648          5.72
     2.151694          3.52
     2.140555          5.48
     2.118473          5.60
     2.095946          2.83
     2.075203          4.70
     2.070081          9.65
     2.054808          6.90
     2.034106          9.71
     2.016967         10.56
     2.016065         10.69
     2.014717          9.10
     1.994130          8.16
     1.992888          3.79
     1.934148          2.49
     1.913340          0.24
     1.904065         23.81
     1.903134          1.58
     1.900816          0.02
     1.890780          0.41
     1.885002          8.20
     1.882148          0.86
     1.881457          2.54
     1.872224          0.05
     1.868918          0.43
     1.868123          6.88
     1.865846         23.11
     1.861654          6.73
     1.857241          0.40
     1.853261          2.96
     1.850832          2.20
     1.847708          7.36
     1.844879          1.45
     1.842913          2.58
     1.841048          1.73
     1.838120          3.57
     1.824819          0.46
     1.822620          4.09
     1.820131          2.24
     1.802508          2.12
     1.794646          6.87
     1.780301          0.81
     1.776924          0.09
     1.772040          0.13
     1.756139          0.68
     1.754889          1.27
     1.752304          0.32
     1.747487          0.12
     1.744888          1.58
     1.734599          0.16
     1.734247          0.30
     1.724010          0.30
     1.687958         30.71
     1.661196          1.33
     1.655092          3.00
     1.651553          4.61
     1.644538         31.61
     1.641693          8.08
     1.636818          2.14
     1.628366          2.80
     1.625668          5.00
     1.623314          1.25
     1.622726          0.67
     1.620984          6.75
     1.616983          3.62
     1.615271          1.19
     1.613679          1.24
     1.610231          2.63
     1.604080          6.71
     1.603954          0.38
     1.599060          9.93
     1.597925          2.90
     1.597010          4.19
     1.595422          0.97
     1.591642          4.16
     1.589683          0.10
     1.585537          1.02
     1.584917          0.71
     1.584391          0.84
     1.584380          0.84
     1.584013          1.84
     1.577410          0.01
     1.574892          1.99
     1.572611          9.21
     1.569507          0.60
     1.568484          0.05
     1.564445          2.90
     1.559758          1.38
     1.557432          4.92
     1.555072          1.53
     1.548421         15.93
     1.547931          3.77
     1.547884         19.88
     1.547723          0.88
     1.543364          0.62
     1.534629         10.46
     1.530581          0.04
     1.528943          0.52
     1.528745         20.86
     1.521394          8.10
     1.516085         15.86
     1.515140          0.68
     1.513746          7.83
     1.512176          1.99
     1.512010         20.86
     1.510688          1.43
     1.507780          9.44
     1.505769          4.59
     1.504639          9.31
     1.502513          1.18
     1.496331         15.17
     1.493593          0.02
     1.491521          0.00
     1.488400          0.09
     1.487992         10.07
     1.487911          1.77
     1.487623          3.91
     1.484327         11.56
     1.482594          8.17
     1.478243          8.65
     1.477064          1.28
     1.472470          7.08
     1.468691          1.40
     1.462381          0.31
     1.458725          0.08
     1.455960          3.19
     1.452743         10.36
     1.450696          0.14
     1.447577          0.43
     1.446563          1.71
     1.444489          2.15
     1.444376          1.03
     1.440071          0.96
     1.436013          0.85
     1.431929          0.12
     1.430933          0.26
     1.430875          0.98
     1.428822          0.19
     1.427036          0.63
     1.425341          0.58
     1.424877          4.15
     1.423943          0.91
     1.421430          1.16
     1.419789          1.50
     1.419053          0.29
     1.417423          0.51
     1.413890          6.54
     1.412315          0.23
     1.411241          2.04
     1.407033          0.38
     1.403438          0.22
     1.402878          2.19
     1.401861          1.40
     1.401398          3.37
     1.397584          0.97
     1.397297          0.17
     1.396939          1.21
     1.395140          6.50
     1.393902          0.48
     1.392169          4.59
     1.386302          7.47
     1.384864          7.54
     1.383616          7.53
     1.383469          0.49
     1.382691          4.61
     1.380654          2.16
     1.380573          4.24
     1.379612          0.81
     1.373671          0.28
     1.366837          2.42
     1.365522          5.09
     1.362814          0.27
     1.360489          0.26
     1.358868          0.82
     1.357725          1.47
     1.355275          0.83
     1.353725          6.21
     1.351949          2.09
     1.351329          4.38
     1.350366          0.22
     1.348627          0.08
     1.348214          1.63
     1.344729          0.14
     1.344694          3.07
     1.340127          2.71
     1.338663          4.57
     1.337902          0.01
     1.336904          2.32
     1.336409          0.91
     1.334942          0.87
     1.334751          0.31
     1.334523          0.64
     1.332465          2.01
     1.328084          3.51
     1.327473          0.67
     1.327216          2.74
     1.326735          8.19
     1.322511          3.41
     1.318540          0.54
     1.318394          3.25
     1.317245          0.53
     1.317073          0.68
     1.316847          2.48
     1.316602          4.77
     1.315662          0.71
     1.315631          0.22
     1.314285          2.46
     1.312993          4.23
     1.309233          3.15
     1.305757          0.18
     1.303041          0.03
     1.302545          0.76
     1.302316          1.09
     1.300244          1.51
     1.298741          0.41
     1.298431          0.14
     1.295467          1.52
     1.294783          0.13
     1.294716          0.22
     1.294003          0.79
     1.291502          3.80
     1.289730          1.95
     1.289037          1.00
     1.287260          4.38
     1.286987          0.28
     1.285836          0.33
     1.283806          3.15
     1.281916          1.28
     1.276561          1.92
     1.273625          0.85
     1.271773          1.29
     1.269619          1.95
     1.265918          0.47
     1.265856          0.30
     1.264104          0.92
     1.262935          0.13
     1.261572          0.59
     1.257274          3.66
     1.256679         13.65
     1.255920          0.15
     1.254838          0.05
     1.247237          2.94
     1.243092          0.44
     1.241819          5.16
     1.241420          0.44
     1.237688          0.25
     1.237539          4.33
     1.236997          0.99
     1.234035          0.07
     1.233954          0.31
     1.233472          0.31
     1.232914          4.81
     1.229828          0.77
     1.229805          0.65
     1.229303          3.69
     1.227598          3.05
     1.227288          0.19
     1.227288          0.59
     1.226211          3.71
     1.224215          0.18
     1.223862          0.34
     1.222823          1.66
     1.221669          3.27
     1.220387          0.01
     1.219712          0.29
     1.218873         10.15
     1.218296          0.69
     1.217911          0.15
     1.217660          0.61
     1.214339          0.01
     1.214009          0.39
     1.212146          0.20
     1.211904          2.96
     1.211473          0.46
     1.211233          1.01
     1.210357          1.91
     1.209665          0.07
     1.209539          2.48
     1.206631          0.39
     1.206018          4.34
     1.204785          1.15
     1.204025          0.82
     1.203155          1.06
     1.202482          1.13
     1.202325          1.46
     1.202144          0.48
     1.201658          0.46
     1.199007          0.35
     1.198664          1.23
     1.194737          0.25
     1.194350          0.61
     1.193661          7.06
     1.193140          0.54
     1.192052          1.98
     1.190989          7.33
     1.189596          0.01
     1.189376          1.42
     1.189364          0.60
     1.188010          2.53
     1.187391          0.66
     1.186891          0.68
     1.184315          0.01
     1.182385          0.95
     1.181190          5.10
     1.177002          0.12
     1.175935          4.05
     1.175003          0.06
     1.174700          0.38
     1.173144          4.66
     1.171971          4.36
     1.168882          5.62
     1.168074          2.66
     1.164664          4.07
     1.163824          5.37
     1.163026          0.63
     1.161524          0.18
     1.160805          0.03
     1.159884          3.48
     1.158606          1.66
     1.158386          3.39
     1.156068          0.21
     1.155710          0.49
     1.153147          3.23
     1.151926          0.30
     1.151501          2.81
     1.151092          0.13
     1.148750          1.04
     1.147220          0.02
     1.145065          0.05
     1.144274          0.03
     1.141936          0.67
     1.141510          2.07
     1.141223          0.15
     1.141124          4.39
     1.137063          0.40
     1.136547          2.39
     1.136422          3.39
     1.133986          0.00
     1.133725          3.29
     1.131824          1.00
     1.130484          1.22
     1.130236          0.01
     1.130087          0.10
     1.127519          0.72
     1.125305          0.17
     1.124772          0.89
     1.124290          2.76
     1.123332          1.24
     1.122254          0.98
     1.120295          0.06
     1.120237          2.53
     1.119773          0.14
     1.119744          1.08
     1.118385          0.45
     1.115769          1.33
     1.115012          0.44
     1.113028          0.03
     1.112768          0.41
     1.112326          0.48
     1.111263          0.03
     1.111109          1.88
     1.109758          1.65
     1.109464          0.07
     1.106085          0.58
     1.105799          0.98
     1.105742          1.85
     1.105659          2.69
     1.105341          0.35
     1.105288          0.74
     1.103655          2.11
     1.103645          0.15
     1.103316          1.85
     1.103231          0.37
     1.101375          0.03
     1.100508          0.09
     1.099807          1.52
     1.099699          0.53
     1.099031          0.14
     1.098885          3.37
     1.098593          0.53
     1.098206          0.05
     1.098000          0.02
     1.096359          0.36
     1.095925          0.85
     1.095489          1.60
     1.092840          0.03
     1.090090          0.23
     1.087350          1.20
     1.086946          0.05
     1.086799          0.01
     1.086596          0.08
     1.086485          1.61
     1.086482          0.38
     1.085094          0.52
     1.084049          0.19
     1.083441          0.05
     1.083350          0.15
     1.083087          0.07
     1.081929          0.63
     1.079938          0.05
     1.079696          0.42
     1.079324          0.01
     1.079298          1.15
     1.079239          1.10
     1.078815          0.09
     1.077765          0.17
     1.077591          0.47
     1.075847          0.23
     1.070909          0.31
     1.070277          3.20
     1.069564          0.02
     1.068410          0.21
     1.067712          1.08
     1.067083          0.20
     1.066524          0.04
     1.066471          0.02
     1.066040          2.40
     1.064541          2.13
     1.064104          0.36
     1.062797          0.05
     1.062633          0.25
     1.059743          0.01
     1.059337          0.11
     1.059236          0.66
     1.058597          0.05
     1.056904          0.55
     1.056028          0.26
     1.056009          0.89
     1.055077          1.39
     1.053636          0.00
     1.052394          0.02
     1.052101          0.22
     1.050582          0.46
     1.050109          0.53
     1.050025          0.17
##############################################################################
###                            Comments                                    ###
##############################################################################
###   Diffraction pattern calculated by Match!. 
###   I/Ic calculated by Match!. 
###   Space group has been derived from given symmetry operations. 
##############################################################################


