##############################################################################
###               Crystal structure data exported by Match!                ###
##############################################################################
###                           Data published by:                           ###
###                                                                        ###
###               COD (Crystallography Open Database)
##############################################################################
data_1000017
_citation_journal_full    'Physica Status Solidi, Sectio A: Applied Research'
_citation_journal_volume  '87'
_citation_page_first  '425'
_citation_page_last   '433'
_citation_year  '1985'
_citation_title  'Ruby structure peculiarities derived from X-ray data. Localization ofchromium atoms and electron deformation density'
loop_
_publ_author_name
  'Tsirelson V G'
  'Antipin M Y'
  'Gerr R G'
  'Ozerov R P'
  'Struchkov Y T'
_chemical_formula_sum  'Al2 O3'
_chemical_name_mineral  'Corundum'
_chemical_name_common  'Aluminium oxide'
_symmetry_space_group_name_H-M 'R -3 c'
_space_group_IT_number 167
_space_group_crystal_system 'trigonal (hexagonal axes)'
loop_
_symmetry_equiv_pos_as_xyz
   'x, y, z'
   'x+0.66667, y+0.33333, z+0.33333'
   'x+0.33333, y+0.66667, z+0.66667'
   '-y, x-y, z'
   '-y+0.66667, x-y+0.33333, z+0.33333'
   '-y+0.33333, x-y+0.66667, z+0.66667'
   '-x+y, -x, z'
   '-x+y+0.66667, -x+0.33333, z+0.33333'
   '-x+y+0.33333, -x+0.66667, z+0.66667'
   'x-y, -y, -z+0.5'
   'x-y+0.66667, -y+0.33333, -z+0.83333'
   'x-y+0.33333, -y+0.66667, -z+0.16667'
   '-x, -x+y, -z+0.5'
   '-x+0.66667, -x+y+0.33333, -z+0.83333'
   '-x+0.33333, -x+y+0.66667, -z+0.16667'
   'y, x, -z+0.5'
   'y+0.66667, x+0.33333, -z+0.83333'
   'y+0.33333, x+0.66667, -z+0.16667'
   '-x, -y, -z'
   '-x+0.66667, -y+0.33333, -z+0.33333'
   '-x+0.33333, -y+0.66667, -z+0.66667'
   'y, -x+y, -z'
   'y+0.66667, -x+y+0.33333, -z+0.33333'
   'y+0.33333, -x+y+0.66667, -z+0.66667'
   'x-y, x, -z'
   'x-y+0.66667, x+0.33333, -z+0.33333'
   'x-y+0.33333, x+0.66667, -z+0.66667'
   '-x+y, y, z+0.5'
   '-x+y+0.66667, y+0.33333, z+0.83333'
   '-x+y+0.33333, y+0.66667, z+0.16667'
   'x, x-y, z+0.5'
   'x+0.66667, x-y+0.33333, z+0.83333'
   'x+0.33333, x-y+0.66667, z+0.16667'
   '-y, -x, z+0.5'
   '-y+0.66667, -x+0.33333, z+0.83333'
   '-y+0.33333, -x+0.66667, z+0.16667'
_cell_length_a        4.76060
_cell_length_b        4.76060
_cell_length_c       12.99400
_cell_angle_alpha    90.0000
_cell_angle_beta     90.0000
_cell_angle_gamma   120.0000
_cell_formula_units_Z 6
loop_
_atom_site_label
_atom_site_fract_x
_atom_site_fract_y
_atom_site_fract_z
_atom_site_occupancy
_atom_site_B_iso_or_equiv
o      0.694   0.000   0.250    1.00000    1.000
al      0.000   0.000   0.352    1.00000    1.000
_cell_measurement_wavelength    1.541874
_cell_measurement_radiation   'x-rays'
_exptl_crystal_density_diffrn    3.983000
loop_
_pd_peak_d_spacing
_pd_peak_intensity
     3.481074        651.11
     2.551600        991.79
     2.380300        451.56
     2.165667          5.17
     2.086050       1000.00
     1.964870         14.36
     1.740537        479.58
     1.601875        938.54
     1.547187         24.14
     1.515297         30.34
     1.511201         69.78
     1.404988        354.85
     1.374267        546.66
     1.336436         11.52
     1.275800         13.00
     1.239304        150.01
     1.234446         82.14
     1.193496          6.55
     1.190150         56.46
     1.160358          5.86
     1.147615         47.56
     1.139057          2.53
     1.126151         33.82
     1.124466         24.04
     1.099239         65.97
     1.082833         16.26
     1.078590         77.44
     1.046627          1.79
     1.043025        154.97
     1.017970         20.33
##############################################################################
###                            Comments                                    ###
##############################################################################
###   Diffraction pattern calculated by Match!. 
###   I/Ic calculated by Match!. 
##############################################################################


