##############################################################################
###               Crystal structure data exported by Match!                ###
##############################################################################
###                           Data published by:                           ###
###                                                                        ###
###               COD (Crystallography Open Database)
##############################################################################
data_9013726
_citation_journal_full    'American Mineralogist'
_citation_journal_volume  '95'
_citation_page_first  '348'
_citation_page_last   '361'
_citation_year  '2010'
_citation_title  'Factors responsible for crystal-chemical variations in the solid solutionsfrom illite to aluminoceladonite and from glauconite to celadoniteLocality: Krivoi Rog mining district, RussiaSample Name: 69Note: y-coordinate of O1 altered by communication with authors'
loop_
_publ_author_name
  'Drits V. A.'
  'Zviagina B. B.'
  'McCarty D. K.'
  'Salyn A. L.'
_chemical_formula_sum  'Al2 H2 K O12 Si4'
_chemical_name_mineral  'Celadonite'
_symmetry_space_group_name_H-M 'C 1 2/m 1'
_space_group_IT_number 12
_space_group_crystal_system 'monoclinic'
loop_
_symmetry_equiv_pos_as_xyz
   'x, y, z'
   'x+0.5, y+0.5, z'
   '-x, y, -z'
   '-x+0.5, y+0.5, -z'
   '-x, -y, -z'
   '-x+0.5, -y+0.5, -z'
   'x, -y, z'
   'x+0.5, -y+0.5, z'
_cell_length_a        5.22700
_cell_length_b        9.05200
_cell_length_c       10.15300
_cell_angle_alpha    90.0000
_cell_angle_beta    100.5300
_cell_angle_gamma    90.0000
loop_
_atom_site_label
_atom_site_fract_x
_atom_site_fract_y
_atom_site_fract_z
_atom_site_occupancy
_atom_site_B_iso_or_equiv
k      0.000   0.500   0.500    1.00000    1.000
al      0.500   0.167   0.000    1.00000    1.000
si      0.420   0.332   0.274    1.00000    1.000
o      0.363   0.326   0.113    1.00000    1.000
o      0.453   0.500   0.332    1.00000    1.000
o      0.691   0.249   0.335    1.00000    1.000
o      0.406   0.000   0.111    1.00000    1.000
_cell_measurement_wavelength    1.541874
_cell_measurement_radiation   'x-rays'
_exptl_crystal_density_diffrn    2.809000
loop_
_pd_peak_d_spacing
_pd_peak_intensity
     9.982017        214.42
     4.991008        211.89
     4.526000        451.48
     4.469007          8.14
     4.344503        345.74
     4.122072        183.14
     3.856687         42.44
     3.628240       1000.00
     3.352738        384.43
     3.327339        331.03
     3.093966        902.47
     2.898621        297.62
     2.680844        414.90
     2.605997        173.78
     2.601979        393.94
     2.576713        415.34
     2.569487        227.10
     2.495504         20.31
     2.486285         51.91
     2.476075         21.47
     2.462836         53.17
     2.400091        379.08
     2.385354        221.13
     2.343093         61.08
     2.263000         35.07
     2.258390        118.12
     2.241471          6.09
     2.234503         83.34
     2.224428         10.59
     2.206995        144.38
     2.185334          1.43
     2.172251         42.17
     2.148412        205.31
     2.131484        109.94
     2.110219         95.63
     2.061036          5.05
     2.044876          0.86
     2.008640         35.41
     1.996403        194.60
     1.980143         44.65
     1.963413        117.63
     1.941305         15.54
     1.928344          9.93
     1.890564          4.60
     1.874690          0.26
     1.871228          0.17
     1.826599          1.26
     1.814120         54.11
     1.737847         21.78
     1.731993          2.35
     1.723632          2.72
     1.723161         25.25
     1.710822         36.28
     1.708673          2.28
     1.707539          1.50
     1.700339         17.90
     1.698258          3.23
     1.689368          5.97
     1.683119         20.37
     1.676369         42.96
     1.670441          0.35
     1.666359          7.51
     1.663669         12.44
     1.659811        276.07
     1.647070          8.31
     1.646515         84.52
     1.646124        121.98
     1.641734         52.56
     1.623936         52.98
     1.622363          0.52
     1.612887         14.52
     1.592517        103.13
     1.586370         80.20
     1.561518          1.71
     1.558092         22.44
     1.551598         32.99
     1.546983          9.17
     1.529868         67.20
     1.528416         39.46
     1.517538        117.32
     1.514645         62.23
     1.508773        242.91
     1.508667        126.02
     1.497097         20.29
     1.493996         14.10
     1.491725         19.72
     1.490204          2.16
     1.489669         20.43
     1.483936         30.00
     1.483033          5.92
     1.464502          5.60
     1.453071          2.57
     1.450879         12.17
     1.449311          4.43
     1.448168          1.44
     1.444132          0.09
     1.443667          9.42
     1.440315          0.17
     1.426002         13.35
     1.425721          8.24
     1.418446          0.89
     1.403798          2.08
     1.383517         68.87
     1.379204          1.22
     1.378319          2.95
     1.374024          0.03
     1.370957          0.09
     1.369060          0.22
     1.360092         24.75
     1.356466         59.85
     1.346256        115.52
     1.340422         30.92
     1.338402          5.81
     1.331194          7.10
     1.306278          0.17
     1.305655         85.98
     1.304780         42.28
     1.302998         47.12
     1.302336         22.04
     1.300990         95.51
     1.300003          2.20
     1.299364         73.96
     1.296784         34.02
     1.292867         12.07
     1.291991          0.18
     1.291070         36.51
     1.288356          0.04
     1.285562         38.65
     1.284744          0.05
     1.279660         18.21
     1.275047         51.76
     1.267420          0.84
     1.260383          1.85
     1.255348         14.63
     1.254539         11.91
     1.254049          0.08
     1.253722          0.03
     1.252141         11.59
     1.251575         29.94
     1.251188          3.88
     1.247752         22.30
     1.246798          2.92
     1.245735         16.65
     1.244279          7.77
     1.243143         27.16
     1.238038          0.23
     1.237462          0.07
     1.235916          3.96
     1.231418          0.01
     1.231388         24.97
     1.229501          2.73
     1.229270         18.62
     1.222713          7.46
     1.219787         16.55
     1.215084          4.88
     1.212884          1.94
     1.209413         20.67
     1.206453         34.72
     1.204429          6.03
     1.203637         21.33
     1.203625         31.07
     1.202878          0.19
     1.201071         22.59
     1.200045          0.00
     1.199403          0.01
     1.198048         15.83
     1.194168          5.62
     1.192677          0.75
     1.191132         11.75
     1.186134          2.50
     1.183244          5.07
     1.177715         12.36
     1.175339          6.47
     1.171547          6.24
     1.171380         19.56
     1.168005          2.66
     1.163462          8.52
     1.160141          1.36
     1.157001         15.83
     1.156573          1.24
     1.155179          2.40
     1.153306          2.88
     1.144770          5.65
     1.141126          1.96
     1.139261          4.76
     1.131500          0.00
     1.131060          1.61
     1.130354         11.32
     1.129195          0.01
     1.128764          5.45
     1.125143          0.22
     1.124300         11.74
     1.123809          3.03
     1.123121          1.23
     1.122582          1.62
     1.120736         35.46
     1.118828          1.11
     1.117790          0.59
     1.117579          1.50
     1.117252          2.28
     1.113904         12.81
     1.112214         59.52
     1.112204          1.34
     1.109113          0.92
     1.103497          1.36
     1.101430         18.64
     1.100996          0.03
     1.097315          0.20
     1.093610          3.42
     1.092667          1.52
     1.091312          3.30
     1.089439          7.45
     1.087879          0.48
     1.086563         10.93
     1.086126          0.11
     1.083920          1.64
     1.077240          1.02
     1.074206         56.57
     1.071253          0.28
     1.069022          1.72
     1.066644          0.01
     1.065742         23.91
     1.063219          0.94
     1.063019          1.86
     1.058823          0.00
     1.056149         32.56
     1.055198          0.94
     1.055109          1.67
     1.049570         17.15
     1.048562          0.30
     1.046579          1.68
     1.041477         17.51
     1.041214          0.03
     1.038562          0.27
     1.038370          3.07
     1.038213          1.08
     1.037913          4.58
     1.037889          1.23
     1.037371          0.45
     1.036328         20.79
     1.035541          0.58
     1.035139          0.14
     1.033516          0.64
     1.032383          4.87
     1.032080          2.31
     1.031322         19.92
     1.030518          3.83
     1.030164          1.24
     1.029136          1.01
     1.027639          0.68
     1.023599          2.18
     1.022438          8.74
     1.022315         12.36
     1.021233          8.02
     1.017974          7.29
     1.015235          3.12
     1.013499          0.02
     1.011742         19.17
     1.011730          0.49
     1.010097         15.94
     1.008905          3.36
     1.008697         12.41
##############################################################################
###                            Comments                                    ###
##############################################################################
###   Diffraction pattern calculated by Match!. 
###   I/Ic calculated by Match!. 
###   Space group has been derived from given symmetry operations. 
##############################################################################


