##############################################################################
###               Crystal structure data exported by Match!                ###
##############################################################################
###                           Data published by:                           ###
###                                                                        ###
###               COD (Crystallography Open Database)
##############################################################################
data_9006294
_citation_journal_full    'Physics and Chemistry of Minerals'
_citation_journal_volume  '21'
_citation_page_first  '269'
_citation_page_last   '284'
_citation_year  '1994'
_citation_title  'Framework silica structures generated using simulated annealingwith a potential energy function based on an H6Si2O7 moleculeSample: 11'
loop_
_publ_author_name
  'Boisen M. B.'
  'Gibbs G. V.'
  'Bukowinski M. S. T.'
_chemical_formula_sum  'O2 Si'
_chemical_name_common  'Silica'
_symmetry_space_group_name_H-M 'C 1 2 1'
_space_group_IT_number 5
_space_group_crystal_system 'monoclinic'
loop_
_symmetry_equiv_pos_as_xyz
   'x, y, z'
   'x+0.5, y+0.5, z'
   '-x, y, -z'
   '-x+0.5, y+0.5, -z'
_cell_length_a        6.99790
_cell_length_b        8.21220
_cell_length_c        6.51060
_cell_angle_alpha    90.0000
_cell_angle_beta    114.9303
_cell_angle_gamma    90.0000
loop_
_atom_site_label
_atom_site_fract_x
_atom_site_fract_y
_atom_site_fract_z
_atom_site_occupancy
_atom_site_B_iso_or_equiv
si      0.204   0.000   0.213    1.00000    1.000
si      0.395   0.820   0.641    1.00000    1.000
o      0.500   0.718   0.500    1.00000    1.000
o      0.000   0.931   0.000    1.00000    1.000
o      0.791   0.927   0.551    1.00000    1.000
o      0.419   0.942   0.193    1.00000    1.000
o      0.808   0.198   0.779    1.00000    1.000
_cell_measurement_wavelength    1.541874
_cell_measurement_radiation   'x-rays'
_exptl_crystal_density_diffrn    2.353000
loop_
_pd_peak_d_spacing
_pd_peak_intensity
     5.903950        166.70
     5.021356        750.38
     4.670250       1000.00
     4.106100        353.03
     3.470714        203.29
     3.370985        165.05
     3.317686        575.80
     3.172922         29.89
     3.023187        222.84
     2.951975         61.44
     2.838894          0.01
     2.650666         63.52
     2.513515         43.48
     2.510678         55.95
     2.465782         54.75
     2.404082         39.13
     2.396851         20.88
     2.335125        190.07
     2.239322          0.67
     2.238839          9.71
     2.184914        150.51
     2.141432         94.17
     2.119892         26.71
     2.094100         20.86
     2.083530         22.87
     2.074645         70.14
     2.053050         39.89
     2.048420         32.36
     1.967983         10.43
     1.939150          9.44
     1.883665         46.57
     1.844253         26.19
     1.813417         49.32
     1.774679         34.64
     1.773198         19.07
     1.772958         28.23
     1.767040          0.32
     1.735357          2.19
     1.728991         22.45
     1.725155         15.02
     1.723684         12.03
     1.723392         16.34
     1.692777         18.84
     1.685493         18.60
     1.673785         16.58
     1.663603         53.24
     1.658843          7.32
     1.654384         10.42
     1.625766          3.96
     1.610594          0.27
     1.598464          2.32
     1.590480         28.41
     1.590046          0.89
     1.586461          0.09
     1.577753         20.18
     1.564262          9.27
     1.561225         36.35
     1.556750          8.89
     1.529750          7.17
     1.511593          7.69
     1.499375         11.69
     1.496172         11.24
     1.485542          0.01
     1.479846         11.70
     1.475988          2.66
     1.474790          2.37
     1.466024          7.72
     1.437415         11.61
     1.431370         30.50
     1.424884          3.15
     1.420696         37.10
     1.419447         60.77
     1.392094         14.59
     1.388976         12.74
     1.379629          4.53
     1.377116         13.51
     1.368700          6.14
     1.359144          3.92
     1.353392          4.13
     1.346171          0.88
     1.346136          6.90
     1.341962         21.68
     1.341858         58.43
     1.341549         13.83
     1.340719         13.01
     1.333339          0.17
     1.325333          8.37
     1.320771         39.34
     1.319980         13.61
     1.318386          8.02
     1.306072         60.97
     1.303337         37.05
     1.300195          3.18
     1.297289          3.34
     1.283837         11.22
     1.274544          4.58
     1.273269          2.95
     1.272032         17.52
     1.267194          6.61
     1.256757          4.50
     1.255339         12.14
     1.254278         38.50
     1.246106          1.16
     1.245748          7.05
     1.245498         10.28
     1.241722         14.59
     1.240463          6.63
     1.239537          3.02
     1.232891         13.24
     1.226727          5.10
     1.221288          6.84
     1.217212         16.45
     1.203523          1.45
     1.202041          5.86
     1.198426         19.05
     1.196054         12.52
     1.189442         25.70
     1.189034          3.71
     1.180790          8.59
     1.177501          2.42
     1.175392          3.24
     1.170582          4.02
     1.167562          4.28
     1.165120         13.58
     1.163763          0.70
     1.163491          4.93
     1.156905          4.99
     1.153623          7.25
     1.152197          4.61
     1.151431          4.28
     1.149860          2.96
     1.148902          1.91
     1.144821          0.14
     1.144628          4.85
     1.143662          2.15
     1.134800          5.94
     1.134579          3.28
     1.129964          1.86
     1.126764          2.79
     1.124855         10.24
     1.123662          1.69
     1.119661          1.04
     1.119419          2.44
     1.116227          4.39
     1.113549          2.83
     1.109087          0.28
     1.105895          1.41
     1.103539          4.62
     1.098446          7.35
     1.092457          5.69
     1.088529          3.15
     1.086595          3.94
     1.077005          8.01
     1.074666          8.83
     1.074526          0.40
     1.072488          4.58
     1.072230          1.68
     1.070716          4.59
     1.065245          8.61
     1.059946          2.28
     1.057641          0.17
     1.056760          1.83
     1.053062          0.08
     1.049616          1.38
     1.048889          3.44
     1.047617          5.04
     1.047568          4.66
     1.047050          4.96
     1.047026          1.95
     1.042964          0.16
     1.041765          1.04
     1.039448          7.35
     1.037322          0.04
     1.037058          2.69
     1.036324          2.47
     1.033540          3.16
     1.032821          6.37
     1.030272          4.28
     1.028928         10.04
     1.026525          2.44
     1.026303          2.08
     1.025945          2.56
     1.024210          2.16
     1.023573          2.52
     1.016730          2.24
     1.013315          2.26
     1.012525          2.41
     1.012421          1.30
     1.012243          1.20
     1.011352          1.89
     1.007896          7.42
     1.007729          3.39
     1.007662          0.45
##############################################################################
###                            Comments                                    ###
##############################################################################
###   Diffraction pattern calculated by Match!. 
###   I/Ic calculated by Match!. 
###   Space group has been derived from given symmetry operations. 
##############################################################################


