##############################################################################
###               Crystal structure data exported by Match!                ###
##############################################################################
###                           Data published by:                           ###
###                                                                        ###
###               COD (Crystallography Open Database)
##############################################################################
data_9003076
_citation_journal_full    'American Mineralogist'
_citation_journal_volume  '88'
_citation_page_first  '1423'
_citation_page_last   '1427'
_citation_year  '2003'
_citation_title  'Variation of hydrogen bonded O...O distances in goethite at high pressureSample at P = 0 GPa'
loop_
_publ_author_name
  'Nagai T.'
  'Kagi H.'
  'Yamanaka T.'
_chemical_formula_sum  'Fe H O2'
_chemical_name_mineral  'Goethite'
_symmetry_space_group_name_H-M 'P b n m'
_space_group_IT_number 62
_space_group_crystal_system 'orthorhombic'
loop_
_symmetry_equiv_pos_as_xyz
   'x, y, z'
   '-x, -y, z+0.5'
   'x+0.5, -y+0.5, -z'
   '-x+0.5, y+0.5, -z+0.5'
   '-x, -y, -z'
   'x, y, -z+0.5'
   '-x+0.5, y+0.5, z'
   'x+0.5, -y+0.5, z+0.5'
_cell_length_a        4.62500
_cell_length_b        9.99000
_cell_length_c        3.03700
_cell_angle_alpha    90.0000
_cell_angle_beta     90.0000
_cell_angle_gamma    90.0000
loop_
_atom_site_label
_atom_site_fract_x
_atom_site_fract_y
_atom_site_fract_z
_atom_site_occupancy
_atom_site_B_iso_or_equiv
fe      -0.045   0.145   0.250    1.00000    1.000
o      0.288   -0.199   0.250    1.00000    1.000
o      -0.198   -0.053   0.250    1.00000    1.000
_cell_measurement_wavelength    1.541874
_cell_measurement_radiation   'x-rays'
_exptl_crystal_density_diffrn    4.158000
loop_
_pd_peak_d_spacing
_pd_peak_intensity
     4.995000        114.20
     4.197034       1000.00
     3.393643         95.45
     2.702409        414.65
     2.594993        237.26
     2.538613         42.11
     2.497500        144.12
     2.460416        647.72
     2.312500         30.99
     2.263105         94.56
     2.252928         24.39
     2.197564        144.28
     2.098517         10.67
     2.018864         40.48
     1.929005         53.59
     1.899418          4.78
     1.834167          8.98
     1.809416         93.50
     1.780357         22.48
     1.726454        344.78
     1.696822        101.15
     1.665000         29.07
     1.610395         57.85
     1.570049        217.06
     1.566578          3.74
     1.523631          6.60
     1.518500         97.01
     1.511860         39.32
     1.481297         29.29
     1.473099         38.95
     1.459984        101.86
     1.452848          4.75
     1.427915         56.97
     1.399011         43.91
     1.392262          0.08
     1.386070          8.86
     1.374689         37.22
     1.363696         51.17
     1.361855         22.28
     1.353431          0.00
     1.351205         18.61
     1.325410         17.63
     1.323823         64.12
     1.311860          0.32
     1.297497         26.66
     1.270672         20.82
     1.269307          9.52
     1.259183          6.58
     1.249267         22.53
     1.248750          0.51
     1.244036          0.40
     1.234531          5.79
     1.230208          2.68
     1.220560          0.11
     1.214484          0.39
     1.205580          0.03
     1.204307         27.45
     1.186064          1.61
     1.169666          2.55
     1.156250          5.17
     1.154930         21.08
     1.148582         24.74
     1.132519         11.85
     1.131552         36.25
     1.131214          9.06
     1.127661          7.08
     1.126464          0.66
     1.121966         11.37
     1.120522          1.04
     1.098782         13.32
     1.092279          4.26
     1.090342          1.70
     1.079350          3.59
     1.075551          3.56
     1.074318          4.24
     1.071386         18.22
     1.060066         15.66
     1.057325         20.42
     1.056153          3.89
     1.049259          2.14
     1.047292          8.97
     1.033236         18.15
     1.028903         24.77
     1.027824         24.18
     1.017029         26.33
     1.014608         32.78
     1.009432         12.20
##############################################################################
###                            Comments                                    ###
##############################################################################
###   Diffraction pattern calculated by Match!. 
###   I/Ic calculated by Match!. 
###   Space group has been derived from given symmetry operations. 
##############################################################################


