##############################################################################
###               Crystal structure data exported by Match!                ###
##############################################################################
###                           Data published by:                           ###
###                                                                        ###
###               COD (Crystallography Open Database)
##############################################################################
data_8103941
_citation_journal_full    'Zeitschrift fuer Kristallographie (149,1979-)'
_citation_journal_volume  '210'
_citation_page_first  '530'
_citation_page_last   '530'
_citation_year  '1995'
_citation_title  'Crystal structure of calcium copper phyllo-decaoxotetrasilicate, Ca CuSi4 O10'
loop_
_publ_author_name
  'Bensch W.'
  'Schur M.'
_chemical_formula_sum  'Ca Cu O10 Si4'
_chemical_name_common  'Egyptian blue'
_symmetry_space_group_name_H-M 'P 4/n c c'
_space_group_IT_number 130
_space_group_crystal_system 'tetragonal'
loop_
_symmetry_equiv_pos_as_xyz
   'x, y, z'
   '-x+0.5, -y+0.5, -z'
   '-y+0.5, x+0.5, z'
   '-x, -y, z'
   'y+0.5, -x+0.5, z'
   'y, -x, -z'
   '-y, x, -z'
   'x+0.5, -y+0.5, -z+0.5'
   '-x+0.5, y+0.5, -z+0.5'
   'y, x, -z+0.5'
   '-y, -x, -z+0.5'
   'x+0.5, y+0.5, -z'
   '-x, y, z+0.5'
   'x, -y, z+0.5'
   '-y+0.5, -x+0.5, z+0.5'
   'y+0.5, x+0.5, z+0.5'
_cell_length_a        7.31400
_cell_length_b        7.31400
_cell_length_c       15.16800
_cell_angle_alpha    90.0000
_cell_angle_beta     90.0000
_cell_angle_gamma    90.0000
_cell_formula_units_Z 4
loop_
_atom_site_label
_atom_site_fract_x
_atom_site_fract_y
_atom_site_fract_z
_atom_site_occupancy
_atom_site_B_iso_or_equiv
o      0.211   0.211   0.250    1.00000    1.000
cu      0.000   0.500   0.082    1.00000    1.000
si      0.253   0.177   0.147    1.00000    1.000
o      0.458   0.252   0.126    1.00000    1.000
o      0.103   0.257   0.082    1.00000    1.000
ca      0.000   0.000   0.000    1.00000    1.000
_cell_measurement_wavelength    1.541874
_cell_measurement_radiation   'x-rays'
_exptl_crystal_density_diffrn    3.077000
loop_
_pd_peak_d_spacing
_pd_peak_intensity
     7.584000        246.87
     5.264644        112.73
     5.171779         66.10
     4.272837          2.82
     3.792000        613.04
     3.657000         91.47
     3.366449        747.49
     3.294038       1000.00
     3.197420        360.05
     3.058068        328.90
     3.003483        929.10
     2.746318         28.24
     2.632322        193.61
     2.585890        286.75
     2.528000         11.10
     2.476796         32.69
     2.447528         17.56
     2.389305         75.84
     2.321020        145.24
     2.312890         17.17
     2.286461         76.25
     2.271189        272.79
     2.224251          0.04
     2.212298          6.31
     2.136419         26.41
     2.103266          8.85
     2.079504         34.59
     2.050723          4.63
     2.010637         77.93
     2.000229         56.07
     1.974576        119.53
     1.959649         29.24
     1.896000         34.83
     1.882662         16.39
     1.839285         64.70
     1.835336        114.70
     1.828500        246.75
     1.807685          1.86
     1.806433          0.96
     1.788683        194.01
     1.780145         66.55
     1.777566         23.69
     1.761897         98.42
     1.754881          1.89
     1.727285         11.58
     1.723926          2.89
     1.706450        206.90
     1.686270          1.18
     1.683224         24.10
     1.681043          0.43
     1.673871          0.49
     1.647019         21.31
     1.640346          2.37
     1.635460         96.85
     1.626035          0.19
     1.606784        113.73
     1.598710        156.91
     1.582147          7.57
     1.581307         39.52
     1.569360         50.90
     1.556077          0.06
     1.531315         33.81
     1.529034          1.03
     1.516800          3.74
     1.501742          1.66
     1.498160          2.61
     1.496678          0.27
     1.485199         60.37
     1.481569          0.80
     1.480880          0.17
     1.466293         48.28
     1.456045         46.79
     1.455494          0.47
     1.452077         19.34
     1.439582          0.14
     1.436326         64.64
     1.434393          3.14
     1.428022         21.59
     1.424279         35.63
     1.409406          0.04
     1.405171          0.90
     1.401067        115.22
     1.385162         95.34
     1.379935         68.43
     1.376047          1.48
     1.373159         23.73
     1.372610          2.16
     1.364774         20.54
     1.362084          7.13
     1.352763         12.87
     1.341617         40.07
     1.336907        110.72
     1.317615         22.07
     1.316161         13.94
     1.311675          4.36
     1.308334          1.68
     1.305379          0.29
     1.296741          0.13
     1.296315          1.13
     1.295355         50.47
     1.292945          5.96
     1.287891          9.19
     1.278635         17.11
     1.275505         19.07
     1.274555          7.29
     1.270618         20.08
     1.268378          1.07
     1.266115          5.35
     1.264000         13.01
     1.254341          3.12
     1.250074         27.67
     1.247560         48.96
     1.245537          0.89
     1.239609          2.22
     1.238398          2.96
     1.237529          1.31
     1.227860          1.79
     1.223764          3.13
     1.221823         41.23
     1.219000          1.24
     1.217434         24.83
     1.214762         16.34
     1.212395          0.90
     1.203552          6.67
     1.198654          0.30
     1.196438          4.42
     1.196074         55.13
     1.194653          7.01
     1.190879          9.22
     1.187581         29.96
     1.184394          6.76
     1.179028          4.75
     1.173681          0.00
     1.169789         10.63
     1.167417          0.14
     1.160510          4.86
     1.159159          7.90
     1.158168         12.74
     1.156445         11.38
     1.153098          0.05
     1.152825         37.07
     1.151125          0.51
     1.150801          0.05
     1.146172          2.70
     1.143916         23.91
     1.143230         23.04
     1.140386         12.65
     1.139030         13.05
     1.138766          0.08
     1.135595         41.81
     1.129516          0.50
     1.127332          0.07
     1.123628         51.32
     1.122150          6.90
     1.117809          0.54
     1.114175          0.84
     1.112125         35.88
     1.109171          2.13
     1.106149          5.01
     1.104715         23.25
     1.104121          2.93
     1.098946          0.10
     1.098013          0.16
     1.093712          9.65
     1.092326          2.78
     1.088681          3.37
     1.087501          0.52
     1.085845          3.58
     1.085573         10.93
     1.083429         13.89
     1.080590          0.09
     1.079211          2.27
     1.072781          6.70
     1.071734          8.33
     1.068986         14.37
     1.068209          2.00
     1.065807          3.05
     1.060410          0.03
     1.057517          0.67
     1.054209          0.09
     1.052929         13.88
     1.051633          7.62
     1.051386          0.07
     1.047853         23.33
     1.046128         11.41
     1.042185          0.20
     1.041723          0.85
     1.040928          3.19
     1.039752         10.47
     1.038799          0.00
     1.035080          3.64
     1.034356          0.74
     1.031959          7.67
     1.029403          0.85
     1.028478          1.65
     1.026049          0.09
     1.025361          0.02
     1.024868          0.45
     1.020239          0.29
     1.019356          0.36
     1.015432          0.50
     1.014269         31.61
     1.013367         16.70
     1.012009          0.00
     1.011824         10.26
     1.011402          0.01
     1.010455          0.01
     1.007317          2.46
##############################################################################
###                            Comments                                    ###
##############################################################################
###   Diffraction pattern calculated by Match!. 
###   I/Ic calculated by Match!. 
###   Space group has been derived from given symmetry operations. 
##############################################################################


