##############################################################################
###               Crystal structure data exported by Match!                ###
##############################################################################
###                           Data published by:                           ###
###                                                                        ###
###               COD (Crystallography Open Database)
##############################################################################
data_9008993
_citation_journal_full    'Crystal Structures'
_citation_journal_volume  '1'
_citation_page_first  '85'
_citation_page_last   '237'
_citation_year  '1963'
_citation_title  'Second edition. Interscience Publishers, New York, New York'
loop_
_publ_author_name
  'Wyckoff R. W. G.'
_chemical_formula_sum  'As S'
_chemical_name_mineral  'Realgar'
_symmetry_space_group_name_H-M 'P 1 21/n 1'
_space_group_IT_number 14
_space_group_crystal_system 'monoclinic'
loop_
_symmetry_equiv_pos_as_xyz
   'x, y, z'
   '-x+0.5, y+0.5, -z+0.5'
   '-x, -y, -z'
   'x+0.5, -y+0.5, z+0.5'
_cell_length_a        9.27000
_cell_length_b       13.50000
_cell_length_c        6.56000
_cell_angle_alpha    90.0000
_cell_angle_beta    106.6200
_cell_angle_gamma    90.0000
loop_
_atom_site_label
_atom_site_fract_x
_atom_site_fract_y
_atom_site_fract_z
_atom_site_occupancy
_atom_site_B_iso_or_equiv
as      0.118   0.024   -0.241    1.00000    1.000
as      0.425   -0.140   -0.142    1.00000    1.000
as      0.318   -0.127   0.181    1.00000    1.000
as      0.038   -0.161   -0.290    1.00000    1.000
s      0.346   0.008   -0.295    1.00000    1.000
s      0.213   0.024   0.120    1.00000    1.000
s      0.245   -0.225   -0.363    1.00000    1.000
s      0.115   -0.215   0.048    1.00000    1.000
_cell_measurement_wavelength    1.541874
_cell_measurement_radiation   'x-rays'
_exptl_crystal_density_diffrn    3.613000
loop_
_pd_peak_d_spacing
_pd_peak_intensity
     7.420491         90.13
     6.750000         47.61
     6.004425        434.85
     5.698486        405.66
     5.486245        262.65
     5.374349       1000.00
     4.600147         90.03
     4.553602         12.68
     4.486302         12.74
     4.441363          0.71
     4.314759          0.17
     4.218912         54.76
     4.048874        224.30
     4.014267         37.26
     3.774933         36.69
     3.710246         59.38
     3.659034         48.20
     3.600955          2.65
     3.593007        108.91
     3.375000          5.47
     3.200763         25.67
     3.179766         12.37
     3.161045        341.99
     3.154946        300.03
     3.142971        457.57
     3.131422         28.12
     3.087597         12.60
     3.061107         72.73
     3.033965        420.77
     3.002212          2.69
     2.973511        253.06
     2.960131         78.78
     2.944184        259.03
     2.942088          0.06
     2.930619        186.27
     2.905684        566.22
     2.892163         19.43
     2.849243        110.76
     2.767280        102.91
     2.743123          9.29
     2.711509        102.54
     2.711447        452.81
     2.687174         99.62
     2.673727        165.85
     2.646292          1.84
     2.641616         69.93
     2.618230          2.54
     2.583298        161.89
     2.576711         27.31
     2.529060         14.64
     2.515614         30.47
     2.505382        147.70
     2.497425         16.51
     2.480830          3.43
     2.473497        140.02
     2.462494        174.63
     2.424589        103.05
     2.386407         42.20
     2.385186         93.12
     2.349156         87.27
     2.332663          0.41
     2.329459         24.80
     2.322436          1.33
     2.307129          7.51
     2.300073          8.01
     2.281848         42.59
     2.278644          0.75
     2.278103          0.00
     2.276801         19.45
     2.256303          0.93
     2.250000        139.52
     2.245096          1.06
     2.243151          0.00
     2.225765         59.16
     2.220681         17.38
     2.218341        141.97
     2.191233         21.49
     2.187096         19.03
     2.183680        138.45
     2.181116        114.42
     2.157379         29.60
     2.155661         70.97
     2.134481          2.56
     2.122128        105.10
     2.121485          2.90
     2.120069        140.90
     2.118383          9.29
     2.109456         54.30
     2.106932         54.39
     2.096385         59.98
     2.082474          0.28
     2.077663          0.79
     2.070523         26.68
     2.068715          0.77
     2.056326          2.48
     2.048052          0.05
     2.045740         54.64
     2.034396         27.84
     2.031570          5.88
     2.024437         45.86
     2.017188          2.08
     2.016967          5.17
     2.007556          0.13
     2.007133         33.66
     2.001475         26.41
     2.001118          4.71
     1.995064         19.70
     1.991400          2.55
     1.987934         14.54
     1.979835          8.52
     1.969133         53.36
     1.964587         24.22
     1.937532         10.06
     1.920303          8.25
     1.919404          0.71
     1.918928         36.72
     1.918896          6.33
     1.908465          1.05
     1.907270          6.21
     1.901166         17.87
     1.899495          4.40
     1.887467          7.51
     1.884663         10.18
     1.882261          4.14
     1.855123         13.63
     1.853988         23.33
     1.853929         73.92
     1.853758          2.38
     1.853705         29.85
     1.847014        101.22
     1.844201        153.51
     1.843746         10.81
     1.836749         28.97
     1.836182          4.65
     1.833388          4.43
     1.829665         23.19
     1.829517         87.86
     1.828748          4.29
     1.811341          0.16
     1.807257        119.64
     1.803979          0.70
     1.800478          3.67
     1.796504         22.12
     1.791450         25.07
     1.787779        115.63
     1.787139         12.94
     1.780148         34.10
     1.775864          4.39
     1.772058         83.77
     1.768993          0.00
     1.766210         30.59
     1.764697          4.86
     1.761359          5.54
     1.756054         67.16
     1.755806         11.46
     1.751021         17.17
     1.741935          1.53
     1.740560         22.96
     1.735716         24.40
     1.721522         54.92
     1.721134          5.49
     1.718037         25.26
     1.715099          5.62
     1.714202         41.38
     1.701464         16.81
     1.697879        145.96
     1.687500         48.02
     1.687041         72.55
     1.680324          4.17
     1.673981          1.68
     1.673664         45.06
     1.669048        147.32
     1.668458         45.42
     1.662317        105.61
     1.661420          6.35
     1.657849         19.74
     1.656214          4.81
     1.655332         38.94
     1.655189         29.78
     1.654408          0.03
     1.652434          6.70
     1.649261         36.94
     1.643782          4.21
     1.635909         23.66
     1.629793          2.17
     1.627580         23.73
     1.624954         65.35
     1.624561          2.40
     1.624029          6.92
     1.622622         17.70
     1.617729          7.22
     1.616005         23.98
     1.612400         42.79
     1.609611         13.21
     1.607879          0.00
     1.602677          0.41
     1.600382         18.82
     1.599350          0.94
     1.598291          0.94
     1.594390          8.46
     1.590300         23.37
     1.589883          1.44
     1.588243          7.13
     1.583971          0.02
     1.583385         54.97
     1.582340          4.12
     1.580523          3.16
     1.578104          1.28
     1.577473          8.12
     1.574739          4.88
     1.574425          2.52
     1.572053          7.46
     1.571485          0.00
     1.568941         20.74
     1.568101          0.49
     1.567016         36.40
     1.565711         66.47
     1.564878          0.28
     1.560945          9.70
     1.556262          3.72
     1.554285          0.06
     1.553183         15.87
     1.551690         20.57
     1.546719          9.87
     1.543798         23.23
     1.538120         31.33
     1.537467          0.91
     1.533382          2.58
     1.532880          0.00
     1.532118          1.70
     1.530553          9.29
     1.529027         11.18
     1.528362         10.90
     1.517867          6.46
     1.516982          0.37
     1.515575          3.57
     1.509326         22.76
     1.508363          0.02
     1.507495         29.59
     1.507000          3.52
     1.504069         56.29
     1.502848          7.61
     1.501106         62.53
     1.499768          4.55
     1.499421          0.57
     1.498330          5.79
     1.495434         22.26
     1.494604         56.41
     1.491912         33.59
     1.486755         18.14
     1.486093          5.85
     1.484098          0.43
     1.483621          6.82
     1.480920          6.04
     1.480888          1.95
     1.480454          1.22
     1.480066          2.21
     1.479060          7.62
     1.474735          6.25
     1.472092         16.29
     1.471632          0.00
     1.471592         17.62
     1.471044          1.26
     1.467939         41.96
     1.467395          1.45
     1.466108          6.98
     1.465310          8.09
     1.463954          7.05
     1.460652          0.17
     1.459461         48.73
     1.459034          2.65
     1.456108          0.14
     1.455277          2.16
     1.452842         84.19
     1.452026          0.06
     1.447737          7.93
     1.446082          3.71
     1.445526         10.49
     1.445283         26.84
     1.442577         14.66
     1.441619         45.96
     1.438253          0.61
     1.437630         28.38
     1.437500         14.53
     1.435085         11.19
     1.434646         18.55
     1.430823          0.10
     1.427240          0.80
     1.424693          5.40
     1.424622         10.76
     1.423969          1.09
     1.421138         49.69
     1.418998         22.67
     1.414273          1.91
     1.407206          8.38
     1.407047          0.69
     1.406994          0.01
     1.406304          0.01
     1.403190          6.05
     1.403081         15.09
     1.399130         19.90
     1.395965         17.14
     1.395096          5.12
     1.394311          0.71
     1.388764          5.40
     1.385055         12.81
     1.384665          7.43
     1.384311          0.00
     1.383640          2.73
     1.383613          9.43
     1.382572          3.82
     1.378798         14.91
     1.376053          0.44
     1.372890          0.35
     1.371561          1.02
     1.369442          0.03
     1.364028          2.28
     1.363881          0.07
     1.363531         39.08
     1.363442          0.00
     1.363006          3.89
     1.362315          4.20
     1.360773          2.14
     1.359647          0.10
     1.358185          9.25
     1.357718         34.29
     1.356973          7.85
     1.355754          1.00
     1.355723          5.09
     1.353791          0.16
     1.353731          2.79
     1.352865          1.35
     1.350214          2.68
     1.350000          3.83
     1.349625          6.01
     1.344638          0.38
     1.343587          4.97
     1.341838         18.48
     1.339576          0.95
     1.338089          0.24
     1.337523          0.44
     1.336864          2.34
     1.336557          2.22
     1.335261          2.26
     1.334674          1.15
     1.330399          1.96
     1.328903          0.17
     1.326671          1.99
     1.324636          3.39
     1.323146          0.02
     1.323121          0.01
     1.322535         14.04
     1.320808         31.61
     1.319904         20.24
     1.319732          0.14
     1.319209          9.26
     1.318254          5.69
     1.317120          6.37
     1.317073          7.17
     1.314379          0.07
     1.314267          6.93
     1.312955          0.12
     1.311975         18.85
     1.309115          0.85
     1.308217          2.94
     1.308013          0.28
     1.306652          0.66
     1.305841         17.56
     1.305247          0.90
     1.304755          0.87
     1.303577          0.02
     1.300887          2.54
     1.299229         24.96
     1.298492          0.00
     1.298119          0.00
     1.297953          5.81
     1.297334          3.77
     1.295583          0.10
     1.294714          1.10
     1.294317          3.72
     1.292859          3.11
     1.292527          0.01
     1.291649          8.45
     1.291384          3.88
     1.290170          6.33
     1.290137          2.54
     1.288356          3.17
     1.287910          0.29
     1.287891         12.13
     1.286489          3.34
     1.286004          0.05
     1.282136          1.25
     1.281630          0.07
     1.275618          4.78
     1.275113          2.39
     1.274837          0.00
     1.274016          3.74
     1.272440          7.08
     1.269760         14.80
     1.269190         16.38
     1.267604          1.74
     1.265932          0.79
     1.264530          0.12
     1.263392          0.91
     1.261953          1.73
     1.261684          2.64
     1.259552          8.10
     1.259055          0.02
     1.258331          2.18
     1.258311          1.68
     1.257807          3.67
     1.256254          5.75
     1.253856         13.44
     1.253143          0.28
     1.252691          0.10
     1.252594          1.92
     1.251772          1.27
     1.250850          0.42
     1.248746          0.86
     1.248712          9.81
     1.247960          0.01
     1.247942          0.43
     1.247591          0.13
     1.247541          1.00
     1.247114         14.85
     1.246564          1.81
     1.244962          0.25
     1.244678          0.75
     1.243003          0.02
     1.242815          0.42
     1.240415          2.99
     1.237940          4.64
     1.236749          0.04
     1.236503         11.82
     1.236401          2.51
     1.235934          2.87
     1.235759          0.03
     1.235046          3.62
     1.234554          0.10
     1.233408          4.98
     1.233063          3.16
     1.232055          5.48
     1.231247          0.00
     1.231098          0.94
     1.229572          0.93
     1.228831          2.44
     1.228682          0.53
     1.228348          3.02
     1.227311         25.00
     1.226566         13.67
     1.226357          0.11
     1.224900          1.00
     1.224797          0.26
     1.224629          2.04
     1.223511         13.08
     1.222846          0.01
     1.221330          7.07
     1.219678          0.98
     1.218253          0.04
     1.217378          9.33
     1.215724          3.37
     1.212709         14.81
     1.212491          2.07
     1.212294          4.54
     1.211892         23.70
     1.210950          3.69
     1.210823          0.01
     1.209988          0.40
     1.209929          1.10
     1.207436          0.07
     1.204770          2.69
     1.204530          5.48
     1.203276          2.05
     1.202896          9.22
     1.202711          0.42
     1.202413          5.10
     1.200885          0.26
     1.200318         10.58
     1.198141          0.11
     1.197669          5.58
     1.196688          0.95
     1.196162          9.04
     1.193450          0.08
     1.193203          0.77
     1.193080          4.60
     1.192757          9.57
     1.192593          3.49
     1.192327          7.58
     1.192014          1.49
     1.187779          0.17
     1.185293          3.89
     1.184989          6.69
     1.184572          0.05
     1.183856          8.35
     1.183117         14.10
     1.182940          8.13
     1.182320          0.00
     1.182107          3.49
     1.181804          0.88
     1.180118          0.11
##############################################################################
###                            Comments                                    ###
##############################################################################
###   Diffraction pattern calculated by Match!. 
###   I/Ic calculated by Match!. 
##############################################################################


