##############################################################################
###               Crystal structure data exported by Match!                ###
##############################################################################
###                           Data published by:                           ###
###                                                                        ###
###               COD (Crystallography Open Database)
##############################################################################
data_9015653
_citation_journal_full    'American Mineralogist'
_citation_journal_volume  '97'
_citation_page_first  '1764'
_citation_page_last   '1770'
_citation_year  '2012'
_citation_title  'High-pressure structural studies of eskolaite by means of single-crystal X-ray diffractionNote: P = 24.1 GPa'
loop_
_publ_author_name
  'Kantor A.'
  'Kantor I.'
  'Merlini M.'
  'Glazyrin K.'
  'Prescher C.'
  'Hanfland M.'
  'Dubrovinsky L.'
_chemical_formula_sum  'Cr2 O3'
_chemical_name_mineral  'Eskolaite'
_symmetry_space_group_name_H-M 'R -3 c'
_space_group_IT_number 167
_space_group_crystal_system 'trigonal (hexagonal axes)'
loop_
_symmetry_equiv_pos_as_xyz
   'x, y, z'
   'x+0.66667, y+0.33333, z+0.33333'
   'x+0.33333, y+0.66667, z+0.66667'
   '-y, x-y, z'
   '-y+0.66667, x-y+0.33333, z+0.33333'
   '-y+0.33333, x-y+0.66667, z+0.66667'
   '-x+y, -x, z'
   '-x+y+0.66667, -x+0.33333, z+0.33333'
   '-x+y+0.33333, -x+0.66667, z+0.66667'
   'x-y, -y, -z+0.5'
   'x-y+0.66667, -y+0.33333, -z+0.83333'
   'x-y+0.33333, -y+0.66667, -z+0.16667'
   '-x, -x+y, -z+0.5'
   '-x+0.66667, -x+y+0.33333, -z+0.83333'
   '-x+0.33333, -x+y+0.66667, -z+0.16667'
   'y, x, -z+0.5'
   'y+0.66667, x+0.33333, -z+0.83333'
   'y+0.33333, x+0.66667, -z+0.16667'
   '-x, -y, -z'
   '-x+0.66667, -y+0.33333, -z+0.33333'
   '-x+0.33333, -y+0.66667, -z+0.66667'
   'y, -x+y, -z'
   'y+0.66667, -x+y+0.33333, -z+0.33333'
   'y+0.33333, -x+y+0.66667, -z+0.66667'
   'x-y, x, -z'
   'x-y+0.66667, x+0.33333, -z+0.33333'
   'x-y+0.33333, x+0.66667, -z+0.66667'
   '-x+y, y, z+0.5'
   '-x+y+0.66667, y+0.33333, z+0.83333'
   '-x+y+0.33333, y+0.66667, z+0.16667'
   'x, x-y, z+0.5'
   'x+0.66667, x-y+0.33333, z+0.83333'
   'x+0.33333, x-y+0.66667, z+0.16667'
   '-y, -x, z+0.5'
   '-y+0.66667, -x+0.33333, z+0.83333'
   '-y+0.33333, -x+0.66667, z+0.16667'
_cell_length_a        4.81520
_cell_length_b        4.81520
_cell_length_c       13.24200
_cell_angle_alpha    90.0000
_cell_angle_beta     90.0000
_cell_angle_gamma   120.0000
_cell_formula_units_Z 6
loop_
_atom_site_label
_atom_site_fract_x
_atom_site_fract_y
_atom_site_fract_z
_atom_site_occupancy
_atom_site_B_iso_or_equiv
cr      0.000   0.000   0.347    1.00000    0.544
o      0.311   0.000   0.250    1.00000    0.631
_cell_measurement_wavelength    1.541874
_cell_measurement_radiation   'x-rays'
_exptl_crystal_density_diffrn    5.695000
loop_
_pd_peak_d_spacing
_pd_peak_intensity
     3.528549        695.50
     2.592803       1000.00
     2.407600        921.76
     2.207000         69.69
     2.113629        277.98
     1.988760         63.72
     1.764274        351.62
     1.626888        868.41
     1.565097          4.88
     1.538482         11.14
     1.533298         61.97
     1.423086        272.45
     1.390028        369.71
     1.354433          2.42
     1.296401          1.59
     1.262095        138.87
     1.255457         25.38
     1.210917          1.41
     1.203800         78.01
     1.176183         59.65
     1.161384         15.48
     1.152187          0.62
     1.141444          3.41
     1.139322         31.53
     1.117818         74.21
     1.103500         20.71
     1.091858         76.56
     1.059912          0.45
     1.056814        154.08
     1.029833         14.95
     1.013871        120.49
##############################################################################
###                            Comments                                    ###
##############################################################################
###   Synthetic
###   Diffraction pattern calculated by Match!. 
###   I/Ic calculated by Match!. 
##############################################################################


