##############################################################################
###               Crystal structure data exported by Match!                ###
##############################################################################
###                           Data published by:                           ###
###                                                                        ###
###               COD (Crystallography Open Database)
##############################################################################
data_9013566
_citation_journal_full    'American Mineralogist'
_citation_journal_volume  '94'
_citation_page_first  '451'
_citation_page_last   '460'
_citation_year  '2009'
_citation_title  'Molecular conformation and anion configuration variations for As4S4 andAs4Se4 in an anion-substituted solid solution Locality: synthetic Note:S1Se0-2'
loop_
_publ_author_name
  'Kyono A.'
_chemical_formula_sum  'As S'
_chemical_name_mineral  'Realgar'
_symmetry_space_group_name_H-M 'P 1 21/n 1'
_space_group_IT_number 14
_space_group_crystal_system 'monoclinic'
loop_
_symmetry_equiv_pos_as_xyz
   'x, y, z'
   '-x+0.5, y+0.5, -z+0.5'
   '-x, -y, -z'
   'x+0.5, -y+0.5, z+0.5'
_cell_length_a        9.33340
_cell_length_b       13.57800
_cell_length_c        6.60060
_cell_angle_alpha    90.0000
_cell_angle_beta    106.4990
_cell_angle_gamma    90.0000
loop_
_atom_site_label
_atom_site_fract_x
_atom_site_fract_y
_atom_site_fract_z
_atom_site_occupancy
_atom_site_B_iso_or_equiv
as      0.121   -0.021   0.763    1.00000    1.868
as      0.424   0.139   0.856    1.00000    1.837
as      0.321   0.126   0.178    1.00000    1.824
as      0.039   0.161   0.715    1.00000    1.973
s      0.344   -0.006   0.701    1.00000    2.021
s      0.214   -0.023   0.116    1.00000    1.991
s      0.239   0.226   0.640    1.00000    2.176
s      0.107   0.210   0.052    1.00000    2.255
_cell_measurement_wavelength    1.541874
_cell_measurement_radiation   'x-rays'
_exptl_crystal_density_diffrn    3.544000
loop_
_pd_peak_d_spacing
_pd_peak_intensity
     7.472130         80.82
     6.789000         57.68
     6.038558        417.92
     5.736295        443.95
     5.517517        260.99
     5.408728       1000.00
     4.629294        101.07
     4.589205         21.65
     4.511990         12.12
     4.474547          0.52
     4.347593          0.01
     4.249735         44.72
     4.073018        215.53
     4.038846         29.46
     3.802034         38.79
     3.736065         72.47
     3.681467         51.27
     3.621640          5.51
     3.614291         92.65
     3.394500          5.14
     3.222479         25.24
     3.198979         11.32
     3.182018        311.32
     3.173847        247.02
     3.164409        421.64
     3.156067         30.35
     3.105769         16.50
     3.081822         66.36
     3.053396        328.66
     3.019279          1.06
     2.991384        201.82
     2.979000         68.24
     2.961862        232.97
     2.959021          0.52
     2.947292        152.46
     2.927705        510.52
     2.913547         16.55
     2.868148         87.69
     2.784711        110.89
     2.758759         14.55
     2.731025        121.20
     2.729071        415.20
     2.704364         96.93
     2.693536        142.84
     2.662066          2.45
     2.657087         60.06
     2.637184          2.63
     2.598593        169.75
     2.593405         22.03
     2.547362          9.38
     2.531232         21.86
     2.519795        126.66
     2.511694         17.36
     2.495566          2.43
     2.490710        135.34
     2.476683        157.42
     2.443891         96.17
     2.405241         44.53
     2.398914         90.83
     2.363068         67.09
     2.349035          0.32
     2.345612         16.88
     2.337085          0.06
     2.321512          7.41
     2.314647          5.27
     2.299442         26.31
     2.294603         14.11
     2.293794          0.31
     2.291399          0.11
     2.270121          0.65
     2.263000        134.41
     2.262522          1.66
     2.255995          0.21
     2.240753         50.63
     2.237274         19.06
     2.231115        112.29
     2.207508         20.95
     2.201487         19.89
     2.197418        122.68
     2.193940         96.82
     2.173796         31.23
     2.169195         69.33
     2.150422          2.10
     2.135918          2.92
     2.134822         98.56
     2.132516        115.51
     2.130873          6.55
     2.124867         48.45
     2.119081         42.30
     2.108915         41.35
     2.094742          0.94
     2.090633          0.48
     2.084595         28.90
     2.082554          2.07
     2.069666          1.32
     2.060791          0.18
     2.057738         48.16
     2.046607          4.35
     2.046117         18.06
     2.036509         42.87
     2.029649          5.84
     2.029179          2.40
     2.019423         26.83
     2.019072          0.10
     2.014584          0.91
     2.012853         20.34
     2.008123         21.04
     2.005618          2.78
     1.999508         10.40
     1.991093         12.90
     1.983343         45.76
     1.976754         22.29
     1.948877          7.10
     1.934306          4.18
     1.931625         32.34
     1.930814          0.65
     1.929819          4.94
     1.923469          2.19
     1.919454          2.27
     1.914972         14.73
     1.912098          4.76
     1.901017          9.47
     1.897153          5.07
     1.895695          7.09
     1.868059         20.37
     1.868033          7.65
     1.866679         19.49
     1.864807         49.42
     1.864443          3.92
     1.860273         85.71
     1.856193        125.12
     1.854564         10.36
     1.849284         28.40
     1.846775          3.14
     1.844644          6.11
     1.843924         14.33
     1.840734         74.38
     1.839172          3.23
     1.821930          0.01
     1.818101        107.67
     1.816579          0.83
     1.810820          4.56
     1.807146         17.63
     1.802909         18.50
     1.799882        102.88
     1.797325         14.35
     1.791773         29.96
     1.786675          4.04
     1.785479         65.28
     1.779688          0.66
     1.778676         23.99
     1.775648          2.74
     1.774469          3.88
     1.767108         48.39
     1.766012         12.67
     1.764370         17.89
     1.752690         15.97
     1.751871          1.22
     1.746936         18.56
     1.731779          6.01
     1.731350         49.21
     1.730685         18.16
     1.726739          4.47
     1.725670         23.43
     1.714382         16.44
     1.708216        119.51
     1.697250         44.50
     1.696769         62.85
     1.690131          5.27
     1.686335          0.87
     1.683220         44.13
     1.680600        123.80
     1.678308         32.36
     1.674800         93.29
     1.671139          6.20
     1.668517          3.70
     1.667525         13.57
     1.665973         31.06
     1.665375         30.70
     1.664931          0.25
     1.664402          5.76
     1.660454         28.50
     1.653747          2.63
     1.645819         23.95
     1.639324          2.79
     1.637277         22.73
     1.635674         60.20
     1.633936          5.19
     1.633860          4.41
     1.631953         15.22
     1.628101          9.53
     1.626156         16.39
     1.622472          9.24
     1.622419         32.03
     1.617073          0.07
     1.614516          0.40
     1.611240         13.86
     1.611011          0.87
     1.608661          0.21
     1.606909          5.87
     1.599490          1.97
     1.599390         14.58
     1.597489          9.30
     1.595773         40.78
     1.594084          0.01
     1.591871          2.43
     1.591009          4.93
     1.587262          0.86
     1.586924          7.13
     1.584727          5.00
     1.584057          1.78
     1.583220          6.87
     1.582205          0.03
     1.580214         16.86
     1.578033         48.58
     1.577205          0.80
     1.576485         29.71
     1.575492          0.13
     1.571571          6.86
     1.565524          0.01
     1.565318          4.79
     1.563704         16.61
     1.562235         15.90
     1.555693          8.22
     1.552885         19.43
     1.546992         25.97
     1.546730          0.07
     1.543523          0.02
     1.543098          1.53
     1.541841          1.38
     1.540911          6.31
     1.540101          8.66
     1.538300          7.27
     1.529735          5.40
     1.527303          4.02
     1.526698          0.27
     1.520118          0.04
     1.519321         19.21
     1.517138         24.38
     1.515766          2.25
     1.514446         45.96
     1.514300          5.92
     1.509640         41.74
     1.508521          3.18
     1.508003          0.45
     1.507021          6.22
     1.503997         21.15
     1.503950         40.77
     1.500394         25.69
     1.495692         19.07
     1.495130          6.81
     1.494426          0.75
     1.493572          5.11
     1.492320          2.93
     1.491516          0.82
     1.490021          2.68
     1.489500          0.98
     1.487675          5.60
     1.483474          5.67
     1.482598          0.49
     1.481347         13.47
     1.480931         11.73
     1.479511          0.30
     1.478464         30.71
     1.476638          0.56
     1.475187          6.49
     1.474206          3.05
     1.473646          9.77
     1.470370          1.13
     1.469435         41.00
     1.467546          2.06
     1.465580          0.66
     1.463852         67.50
     1.463677          1.88
     1.462257          0.01
     1.458002          8.00
     1.456773          4.50
     1.454203          7.15
     1.453686         15.51
     1.452851         10.96
     1.452392         44.36
     1.449198          0.30
     1.446614         14.59
     1.445966         19.02
     1.444049          7.31
     1.442997         14.71
     1.439999          0.28
     1.435618          0.65
     1.434074          8.14
     1.433209          3.04
     1.432077          1.25
     1.429594         40.91
     1.427875         18.88
     1.422477          0.47
     1.416578          0.03
     1.415460          0.25
     1.415325          6.49
     1.415056          0.04
     1.412971         13.64
     1.412667          3.27
     1.407501         16.84
     1.404404         12.94
     1.403820          1.10
     1.403814          4.66
     1.396726          2.35
     1.394658          0.28
     1.394042         12.00
     1.392936          5.02
     1.392814          2.81
     1.392355          2.23
     1.391475          5.23
     1.389774         10.74
     1.384048          0.29
     1.382932          0.70
     1.379379          0.88
     1.377381          0.04
     1.374076          0.08
     1.373498          1.78
     1.372768          0.00
     1.371476         25.41
     1.371306          1.93
     1.370060          1.73
     1.369669          3.28
     1.368436         26.54
     1.368038          0.48
     1.367094          7.71
     1.367090          3.92
     1.365513          0.53
     1.364536          4.36
     1.363104          0.44
     1.362281          0.70
     1.361814          2.00
     1.360730          2.74
     1.357800          1.26
     1.357673          3.84
     1.352572          0.28
     1.352182          5.29
     1.349566         13.35
     1.348508          0.30
     1.348093          0.05
     1.346768          3.30
     1.346282          0.24
     1.345020          0.95
     1.343232          2.33
     1.342436          0.81
     1.340682          2.89
     1.336464          0.59
     1.334957          2.29
     1.334385          1.03
     1.332816          0.07
     1.331033          0.59
     1.330806         12.97
     1.328592          3.83
     1.328544         29.63
     1.328494          5.48
     1.327914          0.00
     1.327590         13.14
     1.324724          4.32
     1.324627          5.49
     1.322490          0.00
     1.322400          3.48
     1.322180          0.07
     1.319462         12.18
     1.318592          0.42
     1.316784          1.96
     1.315877          0.19
     1.315397          0.25
     1.314818          1.37
     1.313924         10.89
     1.312520          1.18
     1.311147          0.02
     1.310197          1.20
     1.309153         19.25
     1.307309          0.00
     1.306206          0.01
     1.305766          2.52
     1.305474          4.79
     1.304473          0.18
     1.303767          0.96
     1.302008          3.53
     1.300320          1.42
     1.300203          0.09
     1.299770          2.88
     1.299296          5.55
     1.298592          2.82
     1.297888          0.01
     1.297541          1.94
     1.296702          3.67
     1.295848          9.08
     1.293946          3.52
     1.293328          0.05
     1.291962          0.89
     1.290353          0.55
     1.283757          2.68
     1.282681          1.99
     1.282264          1.37
     1.282170          0.04
     1.280813          5.83
     1.278266         10.41
     1.276491         13.84
     1.275763          0.86
     1.274716          1.04
     1.273681          0.02
     1.272813          0.62
     1.270453          0.46
     1.269878          3.01
     1.268530          0.05
     1.267345          0.70
     1.267312          4.73
     1.265935          2.51
     1.265616          1.81
     1.263967          4.60
     1.261090         12.70
     1.260603          0.84
     1.260584          0.21
     1.260299          0.52
     1.259897          0.03
     1.258525          0.17
     1.258273          0.82
     1.256360          9.69
     1.255847          7.50
     1.255773          0.03
     1.255203          0.04
     1.254987          0.21
     1.254952          0.61
     1.254597          1.60
     1.252566          0.83
     1.252342          0.85
     1.252336          2.06
     1.250843          0.01
     1.247783          1.41
     1.245355          0.01
     1.245083          2.75
     1.244508          0.27
     1.244321          0.97
     1.243748          1.45
     1.243553          9.06
     1.242902          0.24
     1.242614          1.80
     1.242338          2.51
     1.240662          2.19
     1.239128          2.61
     1.238341          0.01
     1.238243          0.78
     1.237443          0.93
     1.237124          0.67
     1.236715          0.29
     1.236661         15.19
     1.235803          1.50
     1.233624          9.73
     1.233462          0.00
     1.232700          0.20
     1.232061          0.90
     1.231956          1.68
     1.231562          8.22
     1.230353          0.00
     1.230303          2.14
     1.227156          1.21
     1.226058          7.48
     1.226055          0.02
     1.222787          4.17
     1.221945          4.47
     1.221461          2.36
     1.219706         10.61
     1.219066         17.76
     1.218991          0.06
     1.218708          3.61
     1.217385          0.07
     1.217323          0.60
     1.217027          0.03
     1.212597          0.54
     1.212296          1.42
     1.211786          0.49
     1.211535          3.14
     1.210936          7.50
     1.209356          3.69
     1.207712          0.03
     1.207213          9.09
     1.206670          0.03
     1.206229          0.42
     1.204764          1.70
     1.202962          7.02
     1.202621          0.62
     1.201933          0.01
     1.201497          0.83
     1.201150          7.82
     1.199967          2.08
     1.199678          4.30
     1.199457          1.71
     1.196404          0.07
     1.193348          3.26
     1.191999          5.50
     1.191643          6.34
     1.191348          0.20
     1.189917          6.58
     1.189870         10.20
     1.189615          2.63
     1.189376          1.67
     1.189291          0.10
     1.189044          0.08
##############################################################################
###                            Comments                                    ###
##############################################################################
###   Diffraction pattern calculated by Match!. 
###   I/Ic calculated by Match!. 
##############################################################################


