##############################################################################
###               Crystal structure data exported by Match!                ###
##############################################################################
###                           Data published by:                           ###
###                                                                        ###
###               COD (Crystallography Open Database)
##############################################################################
data_4124033
_citation_journal_full    'Journal of the American Chemical Society'
_citation_journal_volume  '126'
_citation_page_first  '9769'
_citation_page_last   '9775'
_citation_year  '2004'
_citation_title  'Chemical evaluation of hypothetical uninodal zeolites'
loop_
_publ_author_name
  'Foster M.D.'
  'Friedrichs O.D.'
  'Bell R.G.'
  'Paz F.A.A.'
  'Klinowski J.'
_chemical_formula_sum  'O2 Si'
_chemical_name_common  'Silica'
_symmetry_space_group_name_H-M 'P m -3 n'
_space_group_IT_number 223
_space_group_crystal_system 'cubic'
loop_
_symmetry_equiv_pos_as_xyz
   'x, y, z'
   '-y+0.5, x+0.5, z+0.5'
   '-x, -y, z'
   'y+0.5, -x+0.5, z+0.5'
   'x+0.5, -z+0.5, y+0.5'
   'x, -y, -z'
   'x+0.5, z+0.5, -y+0.5'
   'z+0.5, y+0.5, -x+0.5'
   '-x, y, -z'
   '-z+0.5, y+0.5, x+0.5'
   'z, x, y'
   'y, z, x'
   '-y, -z, x'
   'z, -x, -y'
   '-y, z, -x'
   '-z, -x, y'
   '-z, x, -y'
   'y, -z, -x'
   'y+0.5, x+0.5, -z+0.5'
   '-y+0.5, -x+0.5, -z+0.5'
   '-x+0.5, z+0.5, y+0.5'
   '-x+0.5, -z+0.5, -y+0.5'
   'z+0.5, -y+0.5, x+0.5'
   '-z+0.5, -y+0.5, -x+0.5'
   '-x, -y, -z'
   'y+0.5, -x+0.5, -z+0.5'
   'x, y, -z'
   '-y+0.5, x+0.5, -z+0.5'
   '-x+0.5, z+0.5, -y+0.5'
   '-x, y, z'
   '-x+0.5, -z+0.5, y+0.5'
   '-z+0.5, -y+0.5, x+0.5'
   'x, -y, z'
   'z+0.5, -y+0.5, -x+0.5'
   '-z, -x, -y'
   '-y, -z, -x'
   'y, z, -x'
   '-z, x, y'
   'y, -z, x'
   'z, x, -y'
   'z, -x, y'
   '-y, z, x'
   '-y+0.5, -x+0.5, z+0.5'
   'y+0.5, x+0.5, z+0.5'
   'x+0.5, -z+0.5, -y+0.5'
   'x+0.5, z+0.5, y+0.5'
   '-z+0.5, y+0.5, -x+0.5'
   'z+0.5, y+0.5, x+0.5'
_cell_length_a       14.33772
_cell_length_b       14.33772
_cell_length_c       14.33772
_cell_angle_alpha    90.0000
_cell_angle_beta     90.0000
_cell_angle_gamma    90.0000
_cell_formula_units_Z 48
loop_
_atom_site_label
_atom_site_fract_x
_atom_site_fract_y
_atom_site_fract_z
_atom_site_occupancy
_atom_site_B_iso_or_equiv
o      0.500   0.347   0.788    1.00000    1.000
o      0.392   0.757   0.321    1.00000    1.000
si      0.395   0.691   0.227    1.00000    1.000
o      0.750   0.137   0.363    1.00000    1.000
_cell_measurement_wavelength    1.541874
_cell_measurement_radiation   'x-rays'
_exptl_crystal_density_diffrn    1.624000
loop_
_pd_peak_d_spacing
_pd_peak_intensity
    10.138299         28.42
     7.168860       1000.00
     6.412023         70.35
     5.853350         61.57
     5.069149          7.91
     4.533985          0.49
     4.138943         48.97
     3.976568        138.83
     3.831917         59.66
     3.584430          0.03
     3.477408          3.04
     3.379433         27.87
     3.206012         66.90
     3.128747          0.02
     3.056812          6.76
     2.926675         53.02
     2.867544         34.55
     2.811858         34.41
     2.662448         26.56
     2.617698          7.75
     2.534575         47.47
     2.458899         19.68
     2.423517          3.24
     2.389620         14.43
     2.357107          0.00
     2.325885          5.22
     2.266993          4.69
     2.239176          0.34
     2.212358         13.97
     2.161493         13.52
     2.137341          2.30
     2.113981         10.64
     2.069472          1.27
     2.048246          1.29
     2.027660         25.71
     1.988284          3.88
     1.969437          4.33
     1.951117          6.11
     1.915958         10.25
     1.882635          0.81
     1.866612          3.80
     1.835757          4.12
     1.820892          8.66
     1.792215          3.54
     1.778375          2.59
     1.764851          5.52
     1.738704         20.36
     1.726059          4.97
     1.713685          5.25
     1.689716          8.90
     1.678103          3.74
     1.666726          8.98
     1.655577          0.48
     1.644649          0.53
     1.633935          3.55
     1.623427          0.01
     1.603006          0.51
     1.593080          3.07
     1.583336          4.76
     1.573769          0.20
     1.564373          2.56
     1.555144          5.18
     1.546076         21.89
     1.528406          1.09
     1.519795          3.43
     1.511328          1.68
     1.503001          2.38
     1.486752          0.21
     1.478823          2.42
     1.463337          4.11
     1.455775          0.31
     1.448328          4.50
     1.433772          6.62
     1.426656          2.91
     1.419646          0.07
     1.405929          7.10
     1.399218          2.83
     1.392602          6.53
     1.386080          2.45
     1.379648          5.33
     1.373305          0.66
     1.367048         15.28
     1.348779          1.98
     1.342851         14.22
     1.336999          1.31
     1.331224          2.82
     1.325523          2.75
     1.319894          4.13
     1.308849          0.26
     1.303429          1.03
     1.298076         16.60
     1.282405          3.22
     1.277306          7.03
     1.267287          0.49
     1.262366          6.93
     1.257501          4.68
     1.252692          1.52
     1.247938          2.67
     1.243238          0.66
     1.238590          5.34
     1.229449          7.69
     1.224954          2.39
     1.220508          4.82
     1.216110          1.32
     1.211758          0.05
     1.207454          6.47
     1.203195          0.45
     1.194810          0.05
     1.190683          2.20
     1.186598          4.78
     1.182555          1.26
     1.178553          0.00
     1.174592          0.83
     1.170670          7.01
     1.162943          0.99
     1.159136          0.72
     1.155366          0.51
     1.151633          1.38
     1.144275          0.10
     1.140648          4.60
     1.133496          0.19
     1.129971          1.05
     1.126478          2.69
     1.119588          3.04
     1.116190          2.64
     1.112823          6.56
     1.106179          1.07
     1.102902          0.23
     1.099653          2.57
     1.096433          0.13
     1.093241          0.08
     1.090077          0.81
     1.086940          1.97
     1.080746          0.59
     1.074658          2.77
     1.071652          0.23
     1.068671          1.08
     1.065714          0.91
     1.062783          2.22
     1.056991          0.03
     1.054130          1.56
     1.051293          0.58
     1.042916          0.22
     1.040168          1.91
     1.034736          0.36
     1.032052          0.35
     1.029388          3.51
     1.026745          3.55
     1.024123          0.87
     1.021520          0.30
     1.018937          2.74
     1.013830          2.00
     1.011305          0.44
     1.008798          0.16
##############################################################################
###                            Comments                                    ###
##############################################################################
###   Diffraction pattern calculated by Match!. 
###   I/Ic calculated by Match!. 
##############################################################################


