##############################################################################
###               Crystal structure data exported by Match!                ###
##############################################################################
###                           Data published by:                           ###
###                                                                        ###
###               COD (Crystallography Open Database)
##############################################################################
data_9005026
_citation_journal_full    'European Journal of Mineralogy'
_citation_journal_volume  '2'
_citation_page_first  '63'
_citation_page_last   '77'
_citation_year  '1990'
_citation_title  'An X-ray study of the temperature dependence of the quartz structureSample: at T = 854 K'
loop_
_publ_author_name
  'Kihara K.'
_chemical_formula_sum  'O2 Si'
_chemical_name_mineral  'Quartz'
_symmetry_space_group_name_H-M 'P 62 2 2'
_space_group_IT_number 180
_space_group_crystal_system 'hexagonal'
loop_
_symmetry_equiv_pos_as_xyz
   'x, y, z'
   'x-y, x, z+0.33333'
   '-y, x-y, z+0.66667'
   '-x, -y, z'
   '-x+y, -x, z+0.33333'
   'y, -x+y, z+0.66667'
   'x-y, -y, -z'
   '-x, -x+y, -z+0.33333'
   'y, x, -z+0.66667'
   '-y, -x, -z+0.66667'
   '-x+y, y, -z'
   'x, x-y, -z+0.33333'
_cell_length_a        4.99680
_cell_length_b        4.99680
_cell_length_c        5.45760
_cell_angle_alpha    90.0000
_cell_angle_beta     90.0000
_cell_angle_gamma   120.0000
loop_
_atom_site_label
_atom_site_fract_x
_atom_site_fract_y
_atom_site_fract_z
_atom_site_occupancy
_atom_site_B_iso_or_equiv
si      0.500   0.000   0.000    1.00000    1.748
o      0.416   0.208   0.167    1.00000    4.292
_cell_measurement_wavelength    1.541874
_cell_measurement_radiation   'x-rays'
_cell_measurement_temperature    854.000000
_exptl_crystal_density_diffrn    2.536000
loop_
_pd_peak_d_spacing
_pd_peak_intensity
     4.327356        181.76
     3.390802       1000.00
     2.498400         37.19
     2.308197         20.20
     2.271680          2.04
     2.163678         34.93
     2.011376         26.46
     1.842715        147.53
     1.819200          0.35
     1.695401         10.43
     1.677033          4.51
     1.635587          0.86
     1.566742         59.21
     1.470642          2.48
     1.442452          8.70
     1.402888         31.35
     1.394565          9.31
     1.392428         57.00
     1.301252          5.32
     1.275248         15.91
     1.249200         15.92
     1.217708          0.62
     1.216285         16.38
     1.200193          4.40
     1.197471         17.44
     1.172183         25.37
     1.154099          0.80
     1.135840          0.38
     1.130267          0.17
     1.098625          9.25
     1.081839          7.11
     1.061191          0.25
     1.058370          7.90
     1.047716          9.50
     1.029789          7.67
##############################################################################
###                            Comments                                    ###
##############################################################################
###   Diffraction pattern calculated by Match!. 
###   I/Ic calculated by Match!. 
###   Space group has been derived from given symmetry operations. 
##############################################################################


