##############################################################################
###               Crystal structure data exported by Match!                ###
##############################################################################
###                           Data published by:                           ###
###                                                                        ###
###               COD (Crystallography Open Database)
##############################################################################
data_1000063
_citation_journal_full    'Zeitschrift fuer Physik'
_citation_journal_volume  '67'
_citation_page_first  '845'
_citation_page_last   '850'
_citation_year  '1930'
_citation_title  'Praezisionsmessung der Gitterkonstante von Cuprooxyd Cu2 O'
loop_
_publ_author_name
  'Neuburger M C'
_chemical_formula_sum  'Cu2 O'
_chemical_name_mineral  'Cuprite'
_chemical_name_common  'Copper(I) oxide'
_symmetry_space_group_name_H-M 'P n -3 m'
_space_group_IT_number 224
_space_group_crystal_system 'cubic'
loop_
_symmetry_equiv_pos_as_xyz
   'x, y, z'
   '-x+0.5, -y+0.5, -z+0.5'
   '-y+0.5, x+0.5, z+0.5'
   '-x, -y, z'
   'y+0.5, -x+0.5, z+0.5'
   'x+0.5, -z+0.5, y+0.5'
   'x, -y, -z'
   'x+0.5, z+0.5, -y+0.5'
   'z+0.5, y+0.5, -x+0.5'
   '-x, y, -z'
   '-z+0.5, y+0.5, x+0.5'
   'y, -x, -z'
   '-y, x, -z'
   '-x, z, -y'
   '-x, -z, y'
   '-z, -y, x'
   'z, -y, -x'
   'z, x, y'
   'y, z, x'
   '-y, -z, x'
   'z, -x, -y'
   '-y, z, -x'
   '-z, -x, y'
   '-z, x, -y'
   'y, -z, -x'
   '-z+0.5, -x+0.5, -y+0.5'
   '-y+0.5, -z+0.5, -x+0.5'
   'y+0.5, z+0.5, -x+0.5'
   '-z+0.5, x+0.5, y+0.5'
   'y+0.5, -z+0.5, x+0.5'
   'z+0.5, x+0.5, -y+0.5'
   'z+0.5, -x+0.5, y+0.5'
   '-y+0.5, z+0.5, x+0.5'
   'y+0.5, x+0.5, -z+0.5'
   '-y+0.5, -x+0.5, -z+0.5'
   '-x+0.5, z+0.5, y+0.5'
   '-x+0.5, -z+0.5, -y+0.5'
   'z+0.5, -y+0.5, x+0.5'
   '-z+0.5, -y+0.5, -x+0.5'
   'x+0.5, y+0.5, -z+0.5'
   '-x+0.5, y+0.5, z+0.5'
   'x+0.5, -y+0.5, z+0.5'
   '-y, -x, z'
   'y, x, z'
   'x, -z, -y'
   'x, z, y'
   '-z, y, -x'
   'z, y, x'
_cell_length_a        4.25200
_cell_length_b        4.25200
_cell_length_c        4.25200
_cell_angle_alpha    90.0000
_cell_angle_beta     90.0000
_cell_angle_gamma    90.0000
_cell_formula_units_Z 2
loop_
_atom_site_label
_atom_site_fract_x
_atom_site_fract_y
_atom_site_fract_z
_atom_site_occupancy
_atom_site_B_iso_or_equiv
o      0.000   0.000   0.000    1.00000    1.000
cu      0.250   0.250   0.250    1.00000    1.000
_cell_measurement_wavelength    1.541874
_cell_measurement_radiation   'x-rays'
_exptl_crystal_density_diffrn    6.181000
_exptl_crystal_density_meas      5.920000
loop_
_pd_peak_d_spacing
_pd_peak_intensity
     3.006618         42.52
     2.454893       1000.00
     2.126000        371.55
     1.735872         10.03
     1.503309        312.02
     1.344600          2.84
     1.282026        263.73
     1.227447         60.50
     1.136395          2.49
     1.063000         37.24
##############################################################################
###                            Comments                                    ###
##############################################################################
###   synthetic
###   Diffraction pattern calculated by Match!. 
###   I/Ic calculated by Match!. 
###   Space group has been derived from given symmetry operations. 
##############################################################################


