##############################################################################
###               Crystal structure data exported by Match!                ###
##############################################################################
###                           Data published by:                           ###
###                                                                        ###
###               COD (Crystallography Open Database)
##############################################################################
data_1538064
_citation_journal_full    'Silikaty'
_citation_journal_volume  '18'
_citation_page_first  '1'
_citation_page_last   '9'
_citation_year  '1974'
_citation_title  'Alpha-beta phase transition in quartz'
loop_
_publ_author_name
  'Hanic F.'
  'Sumichrast L.'
_chemical_formula_sum  'O2 Si'
_chemical_name_common  'Silica'
_symmetry_space_group_name_H-M 'P 32 2 1'
_space_group_IT_number 154
_space_group_crystal_system 'trigonal (hexagonal axes)'
loop_
_symmetry_equiv_pos_as_xyz
   'x, y, z'
   '-y, x-y, z+0.66667'
   '-x+y, -x, z+0.33333'
   'x-y, -y, -z+0.33333'
   '-x, -x+y, -z+0.66667'
   'y, x, -z'
_cell_length_a        4.91304
_cell_length_b        4.91304
_cell_length_c        5.40463
_cell_angle_alpha    90.0000
_cell_angle_beta     90.0000
_cell_angle_gamma   120.0000
_cell_formula_units_Z 3
loop_
_atom_site_label
_atom_site_fract_x
_atom_site_fract_y
_atom_site_fract_z
_atom_site_occupancy
_atom_site_B_iso_or_equiv
o      0.417   0.266   0.120    1.00000    1.000
si      0.469   0.000   0.667    1.00000    1.000
_cell_measurement_wavelength    1.541874
_cell_measurement_radiation   'x-rays'
_exptl_crystal_density_diffrn    2.649000
loop_
_pd_peak_d_spacing
_pd_peak_intensity
     4.254818        277.46
     3.343139       1000.00
     2.456520         85.93
     2.281124        366.68
     2.236354        351.57
     2.127409         64.21
     1.979570         28.02
     1.817721         26.36
     1.801543          3.38
     1.671569         20.83
     1.658963         21.40
     1.608170          4.03
     1.541381         85.69
     1.452747         21.99
     1.418273          6.18
     1.381968         73.66
     1.374818         83.03
     1.371825          6.52
     1.287784         15.35
     1.255820         38.98
     1.228260         17.45
     1.199711         37.09
     1.197720         20.24
     1.183891         23.10
     1.180074         34.73
     1.152912         18.76
     1.140562          7.46
     1.118177          5.74
     1.114380          3.57
     1.081455         17.48
     1.063704          6.18
     1.047647          4.82
     1.043683          2.42
     1.034494         25.17
     1.014839         15.37
##############################################################################
###                            Comments                                    ###
##############################################################################
###   Diffraction pattern calculated by Match!. 
###   I/Ic calculated by Match!. 
###   Space group has been derived from given symmetry operations. 
##############################################################################


