##############################################################################
###               Crystal structure data exported by Match!                ###
##############################################################################
###                           Data published by:                           ###
###                                                                        ###
###               COD (Crystallography Open Database)
##############################################################################
data_9000794
_citation_journal_full    'American Mineralogist'
_citation_journal_volume  '66'
_citation_page_first  '169'
_citation_page_last   '175'
_citation_year  '1981'
_citation_title  'The crystal structure of a third polymorph of Cu5(PO4)2(OH)4 Note: related to pseudomalachite and ludjibaite'
loop_
_publ_author_name
  'Shoemaker G. L.'
  'Anderson J. B.'
  'Kostiner E.'
_chemical_formula_sum  'Cu5 H4 O12 P2'
_chemical_name_mineral  'Ludjibaite'
_symmetry_space_group_name_H-M 'P -1'
_space_group_IT_number 2
_space_group_crystal_system 'triclinic'
loop_
_symmetry_equiv_pos_as_xyz
   'x, y, z'
   '-x, -y, -z'
_cell_length_a        4.44500
_cell_length_b        5.87300
_cell_length_c        8.66800
_cell_angle_alpha   103.6200
_cell_angle_beta     90.3500
_cell_angle_gamma    93.0200
loop_
_atom_site_label
_atom_site_fract_x
_atom_site_fract_y
_atom_site_fract_z
_atom_site_occupancy
_atom_site_B_iso_or_equiv
cu      0.000   0.500   0.500    1.00000    1.000
cu      0.000   0.000   0.000    1.00000    1.000
cu      0.000   0.500   0.000    1.00000    1.000
cu      0.034   -0.030   0.329    1.00000    1.000
p      0.509   0.327   0.227    1.00000    1.000
o      0.698   0.309   0.077    1.00000    1.000
o      0.705   0.295   0.366    1.00000    1.000
o      0.284   0.103   0.187    1.00000    1.000
o      0.663   0.452   0.733    1.00000    1.000
o      0.170   0.196   0.527    1.00000    1.000
o      0.155   0.208   0.872    1.00000    1.000
_cell_measurement_wavelength    1.541874
_cell_measurement_radiation   'x-rays'
_exptl_crystal_density_diffrn    4.354000
loop_
_pd_peak_d_spacing
_pd_peak_intensity
     8.422713         27.50
     5.698987         19.82
     5.341650         83.14
     4.438019       1000.00
     4.274736         33.07
     4.211357         40.63
     3.957581          0.23
     3.895790          8.94
     3.849114         49.52
     3.600067        119.23
     3.482914        135.75
     3.410664        114.15
     3.348218         30.21
     3.161145        108.73
     3.084389        234.00
     3.059216         83.13
     3.026178        318.06
     3.002576         36.41
     2.937298        142.25
     2.916344         30.45
     2.879202        183.69
     2.849493        229.76
     2.807571         79.44
     2.793587         62.72
     2.670825         70.88
     2.571911         77.92
     2.524318         25.75
     2.495621         23.26
     2.468812         85.22
     2.460914        572.33
     2.393375         15.15
     2.382740         25.42
     2.373113         22.46
     2.355383        257.95
     2.352467        243.37
     2.339300        132.32
     2.330040         68.02
     2.311436         85.71
     2.288205         88.41
     2.248894         52.30
     2.248039         49.13
     2.219010        148.38
     2.155947          1.24
     2.146840         61.54
     2.144067         14.72
     2.137368          8.96
     2.135776          0.00
     2.107862         20.10
     2.105678         57.17
     2.082990         18.52
     2.078973          3.29
     2.058397         15.58
     2.029923          4.62
     2.020719          4.02
     2.018627         95.59
     2.012262          4.32
     2.010048         93.12
     1.978790          0.53
     1.965625          2.72
     1.954832          1.57
     1.947895         33.95
     1.939434          0.51
     1.933757          5.24
     1.931441         11.27
     1.929294          3.31
     1.924557         24.70
     1.916620         10.30
     1.908807          5.13
     1.905860         34.99
     1.899662          7.55
     1.888506         11.93
     1.888076          8.42
     1.839028         20.64
     1.834792         35.39
     1.824928          0.10
     1.810447         15.23
     1.800034         82.33
     1.798796         63.66
     1.784406          0.40
     1.782683          2.23
     1.780550         56.88
     1.778832          5.55
     1.765784         11.80
     1.760006          9.91
     1.757291         37.23
     1.755065          3.79
     1.752820         20.33
     1.744638         30.63
     1.741457         75.35
     1.730561         23.86
     1.730332          1.07
     1.724971         25.34
     1.724555          3.71
     1.724139          2.49
     1.720139          3.86
     1.714072         11.83
     1.712244          0.89
     1.705332        113.54
     1.695262         39.70
     1.684543          0.06
     1.678507         13.97
     1.675899         36.34
     1.674109         16.53
     1.673048          1.50
     1.640234         41.89
     1.632286         38.15
     1.630078         39.57
     1.628287          0.00
     1.622908          4.32
     1.616723         35.34
     1.613601          3.41
     1.612531         36.23
     1.610669          0.41
     1.610135          0.95
     1.596126         49.68
     1.584971          3.77
     1.580572         28.81
     1.570983         79.93
     1.570249         78.58
     1.565033          1.91
     1.544108         46.45
     1.542194         52.64
     1.541751          8.73
     1.535306          7.80
     1.531732         25.63
     1.529608         28.42
     1.528468         16.20
     1.522075          4.03
     1.520776          1.20
     1.513089          9.66
     1.506885         10.16
     1.501288         15.46
     1.499944         18.42
     1.484505          0.32
     1.482164         10.67
     1.479340         38.63
     1.476752          9.90
     1.468649          4.13
     1.466020         31.06
     1.462740          2.12
     1.461796          3.36
     1.458172         38.12
     1.453022          1.16
     1.452324          0.55
     1.451681          0.21
     1.444560         30.33
     1.440685          0.06
     1.440613          0.61
     1.440490          3.01
     1.439601          7.13
     1.430905          3.40
     1.429806          0.60
     1.427019         15.47
     1.424912         14.96
     1.424747         36.77
     1.424706          1.17
     1.420847         14.40
     1.420769          5.01
     1.416751          5.19
     1.414377         13.99
     1.412878          0.31
     1.412192         14.03
     1.412023          3.42
     1.411195          0.96
     1.406490         13.93
     1.404949         10.22
     1.404133          1.11
     1.403786         33.68
     1.396794         39.39
     1.392465          6.38
     1.390292          0.09
     1.387480         22.64
     1.380672          5.49
     1.379092         22.10
     1.377486         15.28
     1.376279          0.01
     1.375861          0.02
     1.371629         18.87
     1.371401          0.00
     1.367503          6.79
     1.366300          0.41
     1.366047          5.73
     1.365064         15.68
     1.363796         16.46
     1.362744          0.17
     1.362334          7.34
     1.359815          0.56
     1.355241         16.05
     1.354223          0.10
     1.353224          0.91
     1.346978          0.02
     1.345828         51.38
     1.345626          0.11
     1.343909         31.66
     1.336826         14.00
     1.335546         43.81
     1.335413          0.21
     1.335090         49.88
     1.331144         45.17
     1.330256         18.98
     1.329564          2.56
     1.329200         38.53
     1.328316         12.90
     1.325221          0.51
     1.321234          0.08
     1.319971          0.03
     1.319194         23.42
     1.316662         16.08
     1.315082          9.94
     1.311869         23.11
     1.309533          4.42
     1.308120          0.52
     1.304473          2.35
     1.302875         15.70
     1.298597         13.84
     1.293932          0.01
     1.293279          2.93
     1.293163          3.75
     1.285956          2.89
     1.284671          0.54
     1.284030         48.18
     1.283038          0.22
     1.279522          0.69
     1.274643          7.75
     1.273647          7.92
     1.272641          2.12
     1.269276          0.06
     1.268246          0.38
     1.264857          2.15
     1.263784          8.60
     1.262159          1.17
     1.259183          0.50
     1.252671          0.29
     1.252427          4.45
     1.251341          0.18
     1.247811         22.66
     1.246793          0.00
     1.246730          1.78
     1.242012          1.89
     1.239252          3.93
     1.237853          0.03
     1.236373          3.05
     1.236090          0.93
     1.234406          0.79
     1.232243          0.10
     1.231994          0.03
     1.230457          8.44
     1.228071          2.20
     1.226121          0.42
     1.225981          0.06
     1.224886          0.35
     1.222793          4.10
     1.221482         11.00
     1.219011          8.64
     1.217271          0.03
     1.216788          1.19
     1.216153          1.62
     1.213697          0.21
     1.210845          3.15
     1.207591          0.27
     1.206907          1.14
     1.204929          0.65
     1.203245          0.68
     1.200022          0.99
     1.199754          0.01
     1.197031          3.44
     1.196805          3.97
     1.196687         22.50
     1.194672          0.04
     1.194182          0.67
     1.192124          0.24
     1.191370          5.90
     1.190025          0.00
     1.188130          1.26
     1.186556         22.88
     1.185495          0.01
     1.185196          4.94
     1.184485          1.67
     1.177692         11.34
     1.176233          9.19
     1.174255          3.45
     1.172690          0.51
     1.172230          0.11
     1.171895          1.11
     1.171572          0.86
     1.170097          2.66
     1.169650         20.42
     1.167516          0.88
     1.166955          3.19
     1.166707          5.06
     1.166448          5.41
     1.165020          0.00
     1.164395          7.19
     1.161611          4.30
     1.160971          1.31
     1.155764          0.43
     1.155718         21.01
     1.155453          6.42
     1.155308          1.96
     1.150716          0.00
     1.148188          0.24
     1.146177          1.46
     1.144102         18.83
     1.143760          0.10
     1.143389          0.32
     1.141342          0.17
     1.139797          0.51
     1.136888          1.29
     1.134396          0.11
     1.133669          3.96
     1.132779          0.00
     1.131669          0.02
     1.129010          6.65
     1.127629          0.22
     1.125914          0.08
     1.125653          0.90
     1.124828          1.49
     1.124447          1.03
     1.124019          0.71
     1.122929          0.55
     1.122226          0.95
     1.120574          0.00
     1.119093          2.17
     1.119088          0.49
     1.119083          5.96
     1.116911          7.61
     1.116073          6.17
     1.115777          8.04
     1.115450          1.14
     1.114657          0.07
     1.113933          0.90
     1.113580          0.06
     1.111789          1.32
     1.111423          0.72
     1.109505         17.19
     1.108284         14.05
     1.108117          9.54
     1.105641          1.50
     1.105157          1.84
     1.104073          0.00
     1.103360          1.14
     1.102729          4.01
     1.102298          2.80
     1.101193          0.32
     1.101147          0.36
     1.100616          0.84
     1.100149          8.19
     1.100082          6.87
     1.097915          1.34
     1.097295          1.12
     1.096759         11.07
     1.095644          4.27
     1.095098          0.14
     1.089449          2.50
     1.087710          0.06
     1.087616          0.46
     1.087420         22.78
     1.087101          2.15
     1.084508          0.32
     1.082943          1.05
     1.081968          7.62
     1.079343          1.28
     1.077973          0.10
     1.077857          0.85
     1.077849          1.49
     1.077822          0.12
     1.077748          3.91
     1.077582          0.16
     1.073836          1.46
     1.073420          5.49
     1.072786          6.72
     1.072034          1.22
     1.071870          0.11
     1.069327          2.08
     1.068684          7.68
     1.068507          0.26
     1.068330          0.07
     1.068210          0.11
     1.067888          2.93
     1.066306          0.32
     1.065681          8.99
     1.064474          0.24
     1.060732          3.17
     1.060419          1.41
     1.059480          0.15
     1.057968          8.11
     1.056899          0.31
     1.056600          0.40
     1.056010          7.22
     1.054809          1.52
     1.054505          5.74
     1.053931          6.66
     1.053715          3.83
     1.053371          0.80
     1.052839          3.07
     1.051371         13.56
     1.050108          0.24
     1.049524          0.49
     1.049392          0.16
     1.049001          0.00
     1.048269          4.75
     1.045876          6.14
     1.045675          0.51
     1.045577          4.47
     1.043792          2.97
     1.043700          2.52
     1.042971          0.32
     1.041495         13.18
     1.040865          6.44
     1.040024          1.30
     1.039486         13.27
     1.038649          0.76
     1.037627          0.10
     1.036970          6.81
     1.036396          0.01
     1.034110          0.71
     1.030698          0.01
     1.029714          0.91
     1.029481          0.02
     1.029311          2.39
     1.029198         10.20
     1.028825          2.19
     1.028700          0.34
     1.028226          3.92
     1.028130         10.18
     1.027535          4.96
     1.027027          2.67
     1.026977          0.09
     1.025318          7.39
     1.025191          4.46
     1.025112          1.17
     1.024819          0.81
     1.020052          0.08
     1.020046          0.42
     1.019854          9.04
     1.019739          0.00
     1.018927          1.22
     1.017595          4.98
     1.015821          0.54
     1.015527          4.08
     1.015161          1.77
     1.014961          7.79
     1.014939          0.23
     1.013273          0.53
     1.013206          0.03
     1.012005          0.62
     1.011651          2.94
     1.011421         10.52
     1.010359          2.08
     1.010294          1.03
     1.009969          3.36
     1.009313         19.82
     1.009121          5.35
     1.009106          0.26
     1.008726         11.56
     1.006857          0.18
##############################################################################
###                            Comments                                    ###
##############################################################################
###   Diffraction pattern calculated by Match!. 
###   I/Ic calculated by Match!. 
##############################################################################


