##############################################################################
###               Crystal structure data exported by Match!                ###
##############################################################################
###                           Data published by:                           ###
###                                                                        ###
###               COD (Crystallography Open Database)
##############################################################################
data_9012602
_citation_journal_full    'Solid State Communications'
_citation_journal_volume  '72'
_citation_page_first  '507'
_citation_page_last   '511'
_citation_year  '1989'
_citation_title  'High-pressure crystal chemistry and amorphization of alpha-quartzLocality: syntheticSample: P = 5.1 GPa'
loop_
_publ_author_name
  'Hazen R. M.'
  'Finger L. W.'
  'Hemley R. J.'
  'Mao H. K.'
_chemical_formula_sum  'O2 Si'
_chemical_name_mineral  'Quartz'
_symmetry_space_group_name_H-M 'P 31 2 1'
_space_group_IT_number 152
_space_group_crystal_system 'trigonal (hexagonal axes)'
loop_
_symmetry_equiv_pos_as_xyz
   'x, y, z'
   '-y, x-y, z+0.33333'
   '-x+y, -x, z+0.66667'
   'x-y, -y, -z+0.66667'
   '-x, -x+y, -z+0.33333'
   'y, x, -z'
_cell_length_a        4.70500
_cell_length_b        4.70500
_cell_length_c        5.25000
_cell_angle_alpha    90.0000
_cell_angle_beta     90.0000
_cell_angle_gamma   120.0000
loop_
_atom_site_label
_atom_site_fract_x
_atom_site_fract_y
_atom_site_fract_z
_atom_site_occupancy
_atom_site_B_iso_or_equiv
si      0.453   0.000   0.333    1.00000    0.510
o      0.393   0.288   0.234    1.00000    0.859
_cell_measurement_wavelength    1.541874
_cell_measurement_radiation   'x-rays'
_cell_measurement_pressure       5100000.000000
_exptl_crystal_density_diffrn    2.974000
loop_
_pd_peak_d_spacing
_pd_peak_intensity
     4.074649        174.75
     3.218912       1000.00
     2.352500        141.95
     2.206717        151.49
     2.146823         48.57
     2.037325         75.68
     1.899326         14.42
     1.751914         90.83
     1.750000         13.74
     1.609456         69.63
     1.607972         20.14
     1.540073          5.03
     1.477800        113.12
     1.404108         27.46
     1.358216          0.36
     1.328335         76.54
     1.327500         62.30
     1.314925         70.26
     1.249288         44.63
     1.206306         33.24
     1.176250          7.50
     1.156130         33.39
     1.147795         19.11
     1.146180         18.06
     1.130104         40.23
     1.104798          4.55
     1.103359          2.99
     1.073411          1.27
     1.072971          1.48
     1.037998         26.58
     1.018662          1.35
     1.016783         13.70
##############################################################################
###                            Comments                                    ###
##############################################################################
###   Diffraction pattern calculated by Match!. 
###   I/Ic calculated by Match!. 
###   Space group has been derived from given symmetry operations. 
##############################################################################


