##############################################################################
###               Crystal structure data exported by Match!                ###
##############################################################################
###                           Data published by:                           ###
###                                                                        ###
###               COD (Crystallography Open Database)
##############################################################################
data_9009870
_citation_journal_full    'Anzeiger der Osterreichische Akademie der Wissenschaften'
_citation_journal_volume  '123'
_citation_page_first  '79'
_citation_page_last   '81'
_citation_year  '1986'
_citation_title  'Kristallstrukturdaten der wismutminerale atelestit, mixit und pucheritLocality: Schneeberg, Saxony, Germany'
loop_
_publ_author_name
  'Mereiter K.'
  'Preisinger A.'
_chemical_formula_sum  'Bi O4 V'
_chemical_name_mineral  'Pucherite'
_symmetry_space_group_name_H-M 'P n c a'
_space_group_IT_number 60
_space_group_crystal_system 'orthorhombic'
loop_
_symmetry_equiv_pos_as_xyz
   'x, y, z'
   '-x+0.5, -y, z'
   'x+0.5, -y+0.5, -z+0.5'
   '-x, y+0.5, -z+0.5'
   '-x, -y, -z'
   'x+0.5, y, -z'
   '-x+0.5, y+0.5, z+0.5'
   'x, -y+0.5, z+0.5'
_cell_length_a        5.31900
_cell_length_b        5.05000
_cell_length_c       12.01100
_cell_angle_alpha    90.0000
_cell_angle_beta     90.0000
_cell_angle_gamma    90.0000
loop_
_atom_site_label
_atom_site_fract_x
_atom_site_fract_y
_atom_site_fract_z
_atom_site_occupancy
_atom_site_B_iso_or_equiv
bi      0.250   0.000   0.110    1.00000    1.200
v      0.250   0.000   0.394    1.00000    0.799
o      -0.084   -0.243   0.037    1.00000    1.299
o      -0.044   0.358   0.192    1.00000    1.399
_cell_measurement_wavelength    1.541874
_cell_measurement_radiation   'x-rays'
_exptl_crystal_density_diffrn    6.669000
loop_
_pd_peak_d_spacing
_pd_peak_intensity
     6.005500         98.60
     4.655265        415.93
     3.981792        443.74
     3.503072       1000.00
     3.137319         44.36
     3.126760          0.42
     3.002750        263.12
     2.702274        859.98
     2.659500        185.35
     2.614849         16.57
     2.525000        167.59
     2.431724         19.66
     2.353132          1.28
     2.327632          3.68
     2.322033         22.99
     2.309232        168.34
     2.240975          7.81
     2.190946         10.46
     2.169278        121.28
     2.132394        224.01
     2.028680         65.46
     2.008651         42.33
     2.001833         23.78
     1.990896        209.84
     1.981932          0.86
     1.932552        200.25
     1.873539         70.86
     1.852158          1.01
     1.831148        193.21
     1.816378         18.71
     1.810231          0.25
     1.756550          0.20
     1.751536         14.61
     1.700442         65.30
     1.680995         68.93
     1.667041         29.41
     1.665241          0.41
     1.656898         81.95
     1.654110          0.07
     1.624639          2.87
     1.611536          0.28
     1.599383         37.79
     1.590744         75.94
     1.568659         31.88
     1.563380        150.52
     1.553776        176.65
     1.551755         15.31
     1.550472          0.83
     1.543564        146.53
     1.526724          3.90
     1.524741          0.01
     1.504592         40.91
     1.501375         14.18
     1.489656        125.35
     1.461399          0.35
     1.456290          0.36
     1.444917         13.17
     1.440538          0.48
     1.422358          0.72
     1.415403          0.07
     1.412488         27.30
     1.410427         41.49
     1.389172          1.04
     1.386416          1.18
     1.384068          0.37
     1.378557         15.57
     1.372804          9.19
     1.371217          0.70
     1.364183          0.09
     1.351137         29.94
     1.340290          6.96
     1.334466          8.44
     1.329750         24.91
     1.327264          8.69
     1.307424         30.17
     1.306471          2.14
     1.298304          0.67
     1.290480         25.60
     1.290261         18.88
     1.285917          0.01
     1.285438          0.21
     1.283669          0.13
     1.278610         19.56
     1.265694          0.02
     1.262500         20.91
     1.257415          1.01
     1.254098         10.29
     1.253897          0.77
     1.252159          0.87
     1.252069          0.05
     1.242016          0.02
     1.235494          4.03
     1.224317          6.85
     1.223903         31.69
     1.221998          0.08
     1.215862         32.09
     1.214508         33.33
     1.203455         26.93
     1.201630          0.26
     1.201100         11.84
     1.197815         70.23
     1.196300          0.02
     1.182083          0.09
     1.176566         33.88
     1.174843         27.09
     1.174342          0.00
     1.172093         62.69
     1.171600          5.33
     1.170961          0.06
     1.167691         44.25
     1.163816         23.78
     1.161017         28.70
     1.160857         24.87
     1.159478          0.04
     1.154616          3.27
     1.151891          0.29
     1.145764          3.25
     1.141289          0.38
     1.140515         29.64
     1.136919          1.42
     1.135407          0.02
     1.133702         21.63
     1.130880          0.04
     1.128832          0.18
     1.120488          0.64
     1.117366          0.00
     1.107959          0.10
     1.107645          7.29
     1.096877          0.00
     1.096399          0.17
     1.095473         40.36
     1.095043          1.27
     1.094642         15.23
     1.093678          0.00
     1.088299          4.99
     1.084639         17.60
     1.081926          0.02
     1.078515          0.00
     1.069798          0.25
     1.067867          7.50
     1.067247          0.06
     1.066197         40.63
     1.062768          9.73
     1.056634          0.20
     1.047493          7.07
     1.046975         15.15
     1.046391         40.35
     1.045773          9.07
     1.043456          0.20
     1.043371          9.79
     1.043255          0.08
     1.042253          0.01
     1.039540         11.04
     1.037067         19.58
     1.032564          0.05
     1.030289          0.02
     1.029014          0.81
     1.028053          0.05
     1.026128          0.14
     1.025661          0.06
     1.024666          0.02
     1.014340         11.83
     1.013660         16.32
     1.009726          4.94
     1.007459         29.16
     1.006448          5.27
##############################################################################
###                            Comments                                    ###
##############################################################################
###   Diffraction pattern calculated by Match!. 
###   I/Ic calculated by Match!. 
###   Space group has been derived from given symmetry operations. 
##############################################################################


