##############################################################################
###               Crystal structure data exported by Match!                ###
##############################################################################
###                           Data published by:                           ###
###                                                                        ###
###               COD (Crystallography Open Database)
##############################################################################
data_9012091
_citation_journal_full    'Mineralogical Journal'
_citation_journal_volume  '1'
_citation_page_first  '160'
_citation_page_last   '169'
_citation_year  '1954'
_citation_title  'The crystal structure of orpiment (As2S3) refinedLocality: Saimoku, Japan'
loop_
_publ_author_name
  'Morimoto N.'
_chemical_formula_sum  'As2 S3'
_chemical_name_mineral  'Orpiment'
_symmetry_space_group_name_H-M 'P 1 21/n 1'
_space_group_IT_number 14
_space_group_crystal_system 'monoclinic'
loop_
_symmetry_equiv_pos_as_xyz
   'x, y, z'
   '-x+0.5, y+0.5, -z+0.5'
   '-x, -y, -z'
   'x+0.5, -y+0.5, z+0.5'
_cell_length_a       11.46000
_cell_length_b        9.57000
_cell_length_c        4.22000
_cell_angle_alpha    90.0000
_cell_angle_beta     90.5000
_cell_angle_gamma    90.0000
loop_
_atom_site_label
_atom_site_fract_x
_atom_site_fract_y
_atom_site_fract_z
_atom_site_occupancy
_atom_site_B_iso_or_equiv
as      0.267   0.190   0.143    1.00000    1.000
as      0.484   0.323   0.643    1.00000    1.000
s      0.395   0.120   0.500    1.00000    1.000
s      0.355   0.397   0.013    1.00000    1.000
s      0.125   0.293   0.410    1.00000    1.000
_cell_measurement_wavelength    1.541874
_cell_measurement_radiation   'x-rays'
_exptl_crystal_density_diffrn    3.531000
loop_
_pd_peak_d_spacing
_pd_peak_intensity
     7.345454        156.71
     5.729782          0.00
     4.916014        220.78
     4.785000       1000.00
     4.415529         88.05
     3.971146        403.80
     3.948735         71.94
     3.861137          3.30
     3.672727          3.58
     3.667895         97.12
     3.650214        453.63
     3.547686         68.00
     3.213887          3.63
     3.190190         13.56
     3.164923        276.95
     3.073152         71.88
     3.055849        164.34
     3.045602         61.89
     2.985283        154.65
     2.864891         42.21
     2.844299         23.34
     2.819707        428.00
     2.787159        150.00
     2.778093        100.04
     2.762744        155.76
     2.744550          0.06
     2.726429        648.46
     2.704747         24.06
     2.544710        150.70
     2.486970         10.71
     2.481437          6.16
     2.458007        129.01
     2.448485        259.29
     2.444965          0.77
     2.429291        177.13
     2.392500         36.76
     2.342003         68.99
     2.330219         21.31
     2.321139         24.93
     2.309580         88.23
     2.291997         97.65
     2.228885         27.12
     2.207764         10.46
     2.131485          0.40
     2.130906        124.32
     2.122964         15.59
     2.117073        118.05
     2.112679          3.44
     2.109920         12.10
     2.081262        145.44
     2.067035         35.63
     2.060437        162.90
     2.049314          5.40
     2.046215         19.22
     2.030935          2.36
     2.027620        151.78
     2.024915         18.11
     2.021439          2.09
     2.006696          0.02
     1.985573         23.31
     1.977799          1.84
     1.974367         22.93
     1.963984          8.63
     1.958915          2.02
     1.953512          3.43
     1.944168          2.83
     1.933645          5.19
     1.930568          5.02
     1.909927          0.01
     1.907544         80.22
     1.906237         74.00
     1.901257         22.12
     1.897602         82.28
     1.887849          8.11
     1.872991         63.71
     1.862095         11.17
     1.861317         37.74
     1.850552          1.61
     1.836364          3.95
     1.833947         13.68
     1.830906          0.61
     1.825107         18.76
     1.824296          3.37
     1.819935         23.29
     1.815392         14.98
     1.807020          1.23
     1.773843          0.91
     1.759812          3.82
     1.743080        190.32
     1.741323         12.88
     1.737525         76.65
     1.728578          6.94
     1.724183          5.53
     1.722336         12.06
     1.717501         50.26
     1.717394          3.79
     1.711203         93.46
     1.707482         25.28
     1.706529          5.03
     1.706025         29.51
     1.698569          9.98
     1.691866         33.85
     1.687290         83.48
     1.685702         38.17
     1.680397        105.60
     1.679546        144.84
     1.678829         13.07
     1.669298         15.64
     1.666031        133.57
     1.665950          5.11
     1.655045          6.98
     1.639998         61.17
     1.638671         43.74
     1.630528         49.41
     1.613641         23.64
     1.606944          1.98
     1.602786         42.69
     1.595095          3.96
     1.595000         22.89
     1.593943         16.42
     1.591499          1.55
     1.587943         34.08
     1.583625          0.71
     1.582462         10.87
     1.579771          5.30
     1.568978         42.56
     1.566198         21.41
     1.548936         46.89
     1.544088          3.98
     1.538804          2.55
     1.537487          0.94
     1.536576          3.06
     1.531414          9.16
     1.530762         13.09
     1.527925          0.01
     1.525819          0.50
     1.523695         18.38
     1.522801          0.46
     1.521780         27.61
     1.511547         51.02
     1.504396         20.14
     1.502897         19.46
     1.494661         15.45
     1.492641          1.24
     1.491980         12.12
     1.491503          0.31
     1.486736          0.13
     1.482387          0.36
     1.480078         25.71
     1.478909          1.19
     1.471843         42.99
     1.470768          6.20
     1.469091          0.83
     1.465368         14.52
     1.458602         32.78
     1.457973          2.70
     1.456483         38.55
     1.450206         39.79
     1.444922          0.45
     1.442749         11.95
     1.432445         48.25
     1.422149          5.46
     1.417619         20.89
     1.416664          0.13
     1.410229         13.23
     1.409853          5.03
     1.407901         15.51
     1.406702          3.46
     1.405890         36.93
     1.404195         12.53
     1.400743          2.46
     1.397611          0.02
     1.394799          4.00
     1.394664         18.84
     1.393579         55.26
     1.391661         32.85
     1.391190          1.06
     1.390928          0.13
     1.389833          3.66
     1.389046          8.78
     1.388283         23.59
     1.385013          1.40
     1.382941         29.12
     1.381372          4.41
     1.380091         15.10
     1.380086          0.29
     1.378011          6.11
     1.374249          0.12
     1.373498          0.01
     1.372275         23.67
     1.363214          4.29
     1.357516          0.50
     1.355030          0.45
     1.352373          3.02
     1.351960          1.25
     1.351066         17.66
     1.349674          0.03
     1.349512          1.92
     1.346513          0.15
     1.341556          0.17
     1.339519          0.22
     1.338950         12.89
     1.331595          7.67
     1.329813          2.98
     1.326511         13.48
     1.324962         14.15
     1.323715         10.95
     1.321617         16.87
     1.316245          4.29
     1.316032         12.45
     1.311231          5.80
     1.311123         16.29
     1.309176          4.47
     1.308225          7.13
     1.306746          0.80
     1.306219          1.19
     1.303969         20.22
     1.301808          5.22
     1.300589          7.20
     1.298915          1.30
     1.298249          0.06
     1.292682          2.99
     1.291903         15.77
     1.289814          4.68
     1.289526          7.49
     1.289424          0.47
     1.287185          0.55
     1.287111          2.61
     1.287046         61.14
     1.285192          3.43
     1.284042          0.27
     1.280138          7.36
     1.277873          0.21
     1.276470          8.14
     1.275798         12.90
     1.273548          9.31
     1.272355          6.42
     1.269105          6.25
     1.269062          3.58
     1.267625          6.54
     1.267589          0.00
     1.265315          8.65
     1.263855          0.52
     1.262162          2.92
     1.257905          3.30
     1.256055          0.39
     1.253617          1.26
     1.253548         23.09
     1.252151          2.34
     1.251083          8.02
     1.248623          0.72
     1.247560          0.09
     1.245467          8.23
     1.244085          3.17
     1.243712         14.13
     1.243485          1.02
     1.240718          0.87
     1.233853          0.03
     1.232193         25.86
     1.230466          8.63
     1.230172          0.77
     1.229004          1.35
     1.224806          7.70
     1.224242          0.11
     1.222632          5.69
     1.222482          1.26
     1.221954          0.14
     1.216924          8.91
     1.216738          2.11
     1.216070          0.09
     1.214646          0.20
     1.212572          3.21
     1.212113          0.00
     1.209059          3.32
     1.208805          0.02
     1.206790          0.66
     1.206369          0.01
     1.205250          0.37
     1.204892          0.02
     1.203530          4.35
     1.203007         29.27
     1.202480          1.00
     1.196250         11.60
     1.195458          5.62
     1.194306         15.19
     1.194202          1.20
     1.194124          1.85
     1.191165          0.91
     1.189963          0.37
     1.189785          0.79
     1.188110          0.10
     1.185468          0.01
     1.185011          4.57
     1.184495          0.02
     1.183958          1.06
     1.183070          1.46
     1.182562          3.87
     1.182356          8.87
     1.180869          7.06
     1.180350          0.49
     1.178603          2.20
     1.177613          5.49
     1.177535         13.65
     1.177525          0.03
     1.174121          0.64
     1.174006          2.35
     1.171474          7.44
     1.171001          0.29
     1.170526         12.43
     1.167177          0.53
     1.165109          0.15
     1.160569          0.11
     1.158663          0.08
     1.158254          0.21
     1.154790          0.00
     1.153239          0.04
     1.150899          2.24
     1.147341         23.62
     1.146834          0.05
     1.145998          0.54
     1.145956          0.01
     1.145409          7.24
     1.144867          3.54
     1.142422          0.10
     1.142170          5.99
     1.141580          0.57
     1.141530          0.04
     1.141528         10.17
     1.141100          1.99
     1.141096          2.90
     1.137828         15.26
     1.136304          3.58
     1.135142          3.62
     1.134086         35.25
     1.133448          6.27
     1.132460          0.76
     1.129848          6.18
     1.129402          0.43
     1.128881         12.85
     1.128722          2.43
     1.127844          0.74
     1.127168          0.16
     1.126053          0.60
     1.126037          4.19
     1.124016          0.40
     1.123981          7.87
     1.120158          0.05
     1.119696          8.67
     1.118402          0.28
     1.114923          0.11
     1.114918          0.09
     1.114442          0.02
     1.113665          9.97
     1.113393          1.80
     1.111688         24.09
     1.110416          4.95
     1.109954          1.94
     1.108654         18.54
     1.107000          0.13
     1.106522          0.48
     1.104740         13.47
     1.104424          0.19
     1.103882         29.74
     1.102693          0.00
     1.101244         21.61
     1.101036         25.72
     1.100993          2.14
     1.100283          0.43
     1.097824          0.33
     1.097410          0.12
     1.096207          3.22
     1.088711          0.18
     1.088232          1.88
     1.087304          2.02
     1.084543          2.72
     1.084070          6.87
     1.079764          1.59
     1.079048          0.64
     1.078479          0.01
     1.076358          1.54
     1.075249          0.48
     1.075158          2.44
     1.074786         34.58
     1.073667          1.63
     1.071516         22.87
     1.071296          0.28
     1.068827          0.06
     1.068567          2.29
     1.068492          2.00
     1.067068          0.01
     1.066850         23.76
     1.066843          2.12
     1.065743          5.26
     1.065453          0.00
     1.064862          2.61
     1.063397          0.30
     1.063361         22.59
     1.062312          2.30
     1.061482          8.26
     1.060488          5.88
     1.060131          0.15
     1.059041          1.48
     1.058785          7.37
     1.058536          2.13
     1.056504         23.94
     1.056339          3.18
     1.055827         31.78
     1.054974          0.17
     1.054960          5.27
     1.051433         28.37
     1.051160          1.37
     1.049905          4.58
     1.049351          0.02
     1.048608          6.81
     1.046958         14.09
     1.045620         12.16
     1.045483          0.00
     1.045068          1.75
     1.043424          0.24
     1.042841         12.05
     1.040631          5.13
     1.039137          0.22
     1.038746          0.59
     1.037062          0.03
     1.036769          0.09
     1.036327          2.81
     1.035965          2.35
     1.035912          0.22
     1.035660          0.20
     1.035167          1.18
     1.034894          0.06
     1.033518          0.32
     1.033064          1.03
     1.031709          2.99
     1.031102          8.58
     1.030218         15.06
     1.029951          0.11
     1.029896          1.10
     1.029490          5.33
     1.028035          0.47
     1.027919          0.15
     1.027526          0.93
     1.027191          9.37
     1.027148          0.21
     1.026861          0.84
     1.026758          7.45
     1.026420          0.01
     1.025301          2.28
     1.024657          2.04
     1.024384          4.73
     1.024021          0.36
     1.023108          1.68
     1.020221         10.25
     1.019674         30.61
     1.018846          0.22
     1.018616         15.68
     1.017932          1.89
     1.017006          0.01
     1.015745          1.28
     1.015467          0.00
     1.015201          4.07
     1.015178          0.53
     1.014424          1.01
     1.013810          0.02
     1.013473          1.94
     1.013445          1.33
     1.013168          0.55
     1.012457          0.35
     1.010719         12.75
     1.010576          1.49
     1.009365         18.93
     1.008967          5.08
     1.007894          1.46
     1.007837         28.01
     1.007184          0.45
##############################################################################
###                            Comments                                    ###
##############################################################################
###   Diffraction pattern calculated by Match!. 
###   I/Ic calculated by Match!. 
##############################################################################


