##############################################################################
###               Crystal structure data exported by Match!                ###
##############################################################################
###                           Data published by:                           ###
###                                                                        ###
###               COD (Crystallography Open Database)
##############################################################################
data_9014772
_citation_journal_full    'The Canadian Mineralogist'
_citation_journal_volume  '48'
_citation_page_first  '1225'
_citation_page_last   '1236'
_citation_year  '2010'
_citation_title  'Temperature dependence of the structural parametersin the transformation of aragonite to calcite,as determined from in situ synchrotron powder X-ray-diffraction dataNote: T = 379 CNote: P = 101 kPa'
loop_
_publ_author_name
  'Antao S. M.'
  'Hassan I.'
_chemical_formula_sum  'C Ca O3'
_chemical_name_mineral  'Calcite'
_symmetry_space_group_name_H-M 'R -3 c'
_space_group_IT_number 167
_space_group_crystal_system 'trigonal (hexagonal axes)'
loop_
_symmetry_equiv_pos_as_xyz
   'x, y, z'
   'x+0.66667, y+0.33333, z+0.33333'
   'x+0.33333, y+0.66667, z+0.66667'
   '-y, x-y, z'
   '-y+0.66667, x-y+0.33333, z+0.33333'
   '-y+0.33333, x-y+0.66667, z+0.66667'
   '-x+y, -x, z'
   '-x+y+0.66667, -x+0.33333, z+0.33333'
   '-x+y+0.33333, -x+0.66667, z+0.66667'
   'x-y, -y, -z+0.5'
   'x-y+0.66667, -y+0.33333, -z+0.83333'
   'x-y+0.33333, -y+0.66667, -z+0.16667'
   '-x, -x+y, -z+0.5'
   '-x+0.66667, -x+y+0.33333, -z+0.83333'
   '-x+0.33333, -x+y+0.66667, -z+0.16667'
   'y, x, -z+0.5'
   'y+0.66667, x+0.33333, -z+0.83333'
   'y+0.33333, x+0.66667, -z+0.16667'
   '-x, -y, -z'
   '-x+0.66667, -y+0.33333, -z+0.33333'
   '-x+0.33333, -y+0.66667, -z+0.66667'
   'y, -x+y, -z'
   'y+0.66667, -x+y+0.33333, -z+0.33333'
   'y+0.33333, -x+y+0.66667, -z+0.66667'
   'x-y, x, -z'
   'x-y+0.66667, x+0.33333, -z+0.33333'
   'x-y+0.33333, x+0.66667, -z+0.66667'
   '-x+y, y, z+0.5'
   '-x+y+0.66667, y+0.33333, z+0.83333'
   '-x+y+0.33333, y+0.66667, z+0.16667'
   'x, x-y, z+0.5'
   'x+0.66667, x-y+0.33333, z+0.83333'
   'x+0.33333, x-y+0.66667, z+0.16667'
   '-y, -x, z+0.5'
   '-y+0.66667, -x+0.33333, z+0.83333'
   '-y+0.33333, -x+0.66667, z+0.16667'
_cell_length_a        4.97400
_cell_length_b        4.97400
_cell_length_c       17.25100
_cell_angle_alpha    90.0000
_cell_angle_beta     90.0000
_cell_angle_gamma   120.0000
loop_
_atom_site_label
_atom_site_fract_x
_atom_site_fract_y
_atom_site_fract_z
_atom_site_occupancy
_atom_site_B_iso_or_equiv
ca      0.000   0.000   0.000    1.00000    0.947
c      0.000   0.000   0.250    1.00000    4.263
o      0.262   0.000   0.250    1.00000    4.263
_cell_measurement_wavelength    1.541874
_cell_measurement_radiation   'x-rays'
_exptl_crystal_density_diffrn    2.698000
loop_
_pd_peak_d_spacing
_pd_peak_intensity
     3.853762        124.64
     3.047756       1000.00
     2.875167         12.74
     2.487000        150.96
     2.282657        165.55
     2.089644        152.55
     1.928260        188.19
     1.926881         73.28
     1.880956        223.08
     1.620921         19.76
     1.601451         18.02
     1.599872         99.11
     1.523878         30.31
     1.523197         64.89
     1.518192         18.21
     1.472416         10.77
     1.437583         30.65
     1.435870         59.89
     1.358442          6.27
     1.346450         24.58
     1.299356         34.10
     1.284587         12.72
     1.244612         25.62
     1.243500         13.37
     1.215406          0.31
     1.191861          0.06
     1.184697          7.04
     1.184057         26.87
     1.183418         12.48
     1.151355         37.68
     1.141329         24.59
     1.129503          1.71
     1.128948          0.04
     1.075050          0.03
     1.069547          9.64
     1.068606          2.16
     1.045922         12.26
     1.045042         25.86
     1.044822         18.47
     1.043859          1.39
     1.043202          0.11
     1.028619          0.91
     1.015919         25.41
##############################################################################
###                            Comments                                    ###
##############################################################################
###   Cuenca, Spain
###   Diffraction pattern calculated by Match!. 
###   I/Ic calculated by Match!. 
##############################################################################


