##############################################################################
###               Crystal structure data exported by Match!                ###
##############################################################################
###                           Data published by:                           ###
###                                                                        ###
###               COD (Crystallography Open Database)
##############################################################################
data_4115457
_citation_journal_full    'Journal of the American Chemical Society'
_citation_journal_volume  '123'
_citation_page_first  '2204'
_citation_page_last   '2212'
_citation_year  '2001'
_citation_title  'Ti Location in the MFI Framework of Ti-Silicalite-1: A Neutron PowderDiffraction Study'
loop_
_publ_author_name
  'Carlo Lamberti'
  'Silvia Bordiga'
  'Adriano Zecchina'
  'Gilberto Artioli'
  'Gianluigi Marra'
  'Guido Span?'
_chemical_formula_sum  'O2 Si'
_chemical_name_common  'Silica'
_symmetry_space_group_name_H-M 'P n m a'
_space_group_IT_number 62
_space_group_crystal_system 'orthorhombic'
loop_
_symmetry_equiv_pos_as_xyz
   'x, y, z'
   '-x+0.5, -y, z+0.5'
   'x+0.5, -y+0.5, -z+0.5'
   '-x, y+0.5, -z'
   '-x, -y, -z'
   'x+0.5, y, -z+0.5'
   '-x+0.5, y+0.5, z+0.5'
   'x, -y+0.5, z'
_cell_length_a       20.07147
_cell_length_b       19.90742
_cell_length_c       13.38532
_cell_angle_alpha    90.0000
_cell_angle_beta     90.0000
_cell_angle_gamma    90.0000
_cell_formula_units_Z 96
loop_
_atom_site_label
_atom_site_fract_x
_atom_site_fract_y
_atom_site_fract_z
_atom_site_occupancy
_atom_site_B_iso_or_equiv
si      0.425   0.055   -0.332    1.00000    1.972
si      0.309   0.027   -0.183    1.00000    1.972
si      0.278   0.062   0.036    1.00000    1.972
si      0.119   0.064   0.028    1.00000    1.972
si      0.073   0.030   -0.189    1.00000    1.972
si      0.192   0.064   -0.324    1.00000    1.972
si      0.425   -0.174   -0.325    1.00000    1.972
si      0.312   -0.133   -0.186    1.00000    1.972
si      0.275   -0.175   0.033    1.00000    1.972
si      0.123   -0.173   0.035    1.00000    1.972
si      0.072   -0.126   -0.176    1.00000    1.972
si      0.186   -0.173   -0.319    1.00000    1.972
o      0.376   0.045   -0.240    1.00000    3.943
o      0.307   0.061   -0.075    1.00000    3.943
o      0.199   0.060   0.030    1.00000    3.943
o      0.099   0.062   -0.087    1.00000    3.943
o      0.119   0.053   -0.279    1.00000    3.943
o      0.249   0.062   -0.241    1.00000    3.943
o      0.381   -0.161   -0.228    1.00000    3.943
o      0.307   -0.155   -0.072    1.00000    3.943
o      0.199   -0.151   0.029    1.00000    3.943
o      0.088   -0.159   -0.070    1.00000    3.943
o      0.118   -0.155   -0.263    1.00000    3.943
o      0.250   -0.153   -0.253    1.00000    3.943
o      0.316   -0.053   -0.187    1.00000    3.943
o      0.084   -0.047   -0.162    1.00000    3.943
o      0.414   0.125   -0.387    1.00000    3.943
o      0.412   -0.001   -0.415    1.00000    3.943
o      0.401   -0.134   -0.422    1.00000    3.943
o      0.188   0.135   -0.379    1.00000    3.943
o      0.201   0.002   -0.398    1.00000    3.943
o      0.196   -0.132   -0.420    1.00000    3.943
o      -0.002   0.051   -0.216    1.00000    3.943
o      -0.002   -0.148   -0.201    1.00000    3.943
o      0.421   -0.250   -0.362    1.00000    3.943
o      0.196   -0.250   -0.347    1.00000    3.943
o      0.288   -0.250   0.070    1.00000    3.943
o      0.117   -0.250   0.065    1.00000    3.943
si      0.425   0.055   -0.332    1.00000    1.972
si      0.309   0.027   -0.183    1.00000    1.972
si      0.278   0.062   0.036    1.00000    1.972
si      0.119   0.064   0.028    1.00000    1.972
si      0.073   0.030   -0.189    1.00000    1.972
si      0.192   0.064   -0.324    1.00000    1.972
si      0.425   -0.174   -0.325    1.00000    1.972
si      0.312   -0.133   -0.186    1.00000    1.972
si      0.275   -0.175   0.033    1.00000    1.972
si      0.123   -0.173   0.035    1.00000    1.972
si      0.072   -0.126   -0.176    1.00000    1.972
si      0.186   -0.173   -0.319    1.00000    1.972
_cell_measurement_wavelength    1.541874
_cell_measurement_radiation   'x-rays'
_exptl_crystal_density_diffrn    2.627000
loop_
_pd_peak_d_spacing
_pd_peak_intensity
    11.136148       1000.00
    11.107890        667.36
    10.035735        473.37
     9.953710        499.36
     9.718854        239.12
     8.961416          8.84
     8.029525          6.59
     7.446611          0.07
     7.421296         19.64
     7.067157          1.89
     6.692660         63.31
     6.349009        153.06
     6.249569          1.00
     6.048831         11.36
     5.984544        132.36
     5.945312         80.64
     5.731177          0.60
     5.700493         90.30
     5.568074         67.41
     5.553945         51.14
     5.535206         12.00
     5.362275         10.80
     5.352799         35.75
     5.128902         12.50
     5.115102          0.13
     5.017868         37.19
     4.976855         56.50
     4.865679          4.45
     4.859427          0.31
     4.731658          0.07
     4.698564          1.08
     4.603413         44.86
     4.587467          0.60
     4.572921          3.82
     4.543740          5.33
     4.480708          1.09
     4.458699          4.78
     4.444172         11.15
     4.355459         17.37
     4.353763         27.68
     4.273393          3.72
     4.265401         11.69
     4.254816         10.41
     4.248966         68.21
     4.230185          0.41
     4.077002         12.04
     4.014763          0.01
     4.002389         30.71
     3.994101          5.73
     3.993664          0.06
     3.990181          6.33
     3.935528          0.79
     3.916882          1.09
     3.852560         16.73
     3.845099        482.19
     3.834633          0.31
     3.826552          0.70
     3.816236        383.61
     3.775322          0.07
     3.772788          0.00
     3.749073        167.65
     3.723306          0.03
     3.712049        256.65
     3.710648          0.63
     3.702630         25.64
     3.700872         11.66
     3.649152          0.64
     3.641193        202.30
     3.586780         17.58
     3.567041          0.01
     3.533579          0.44
     3.478060         20.90
     3.473747          6.88
     3.442524          0.22
     3.435007         70.41
     3.429195          0.40
     3.416534          0.08
     3.392179         15.22
     3.373099         13.76
     3.346330          4.40
     3.345245         27.95
     3.334294         18.96
     3.326929          1.08
     3.317903         27.52
     3.314893          2.81
     3.300771         55.70
     3.298992          5.12
     3.288487          0.42
     3.277585          0.01
     3.256313          5.99
     3.253439          0.03
     3.245426          4.79
     3.239618          8.43
     3.238687         15.20
     3.203140          0.44
     3.179772          1.42
     3.174504         11.52
     3.171879          0.00
     3.170955          1.99
     3.161623          6.72
     3.153863          0.16
     3.150205          0.60
     3.134897          0.29
     3.133000         18.37
     3.124785          0.46
     3.118940          4.29
     3.085555          1.53
     3.066427          1.50
     3.055790          3.34
     3.046455         82.70
     3.042762          5.64
     3.037568          3.13
     3.024415          0.00
     2.992854          0.33
     2.992272          1.42
     2.987139         10.49
     2.984234         68.67
     2.979333          0.07
     2.975538          5.71
     2.972656          3.32
     2.970680         62.56
     2.959595          9.46
     2.959032          3.52
     2.955345          3.33
     2.951259          0.09
     2.940581          0.03
     2.938668         58.90
     2.915423          0.55
     2.901777          2.26
     2.866100          1.35
     2.865588          0.26
     2.863685          6.84
     2.858526         17.58
     2.850246          0.50
     2.848505          6.59
     2.831212          0.64
     2.827027          5.22
     2.803744          7.82
     2.784037          0.28
     2.781822         11.10
     2.776972          0.92
     2.776352          0.01
     2.776344          1.42
     2.770082          0.68
     2.767603          0.72
     2.765855          0.02
     2.757205          0.02
     2.755483          0.00
     2.750770          0.07
     2.736176          0.21
     2.728210          3.56
     2.727769         36.82
     2.721676          1.20
     2.718491          0.10
     2.716582          0.34
     2.715074          0.01
     2.710275          0.42
     2.698726          0.43
     2.681137          0.01
     2.680740          0.32
     2.676508         14.44
     2.676399          2.02
     2.653565          5.77
     2.653182          7.83
     2.652641          0.02
     2.639324          0.29
     2.635646          2.15
     2.630301          0.81
     2.612846          5.11
     2.604097         46.75
     2.595435          2.12
     2.586617          5.17
     2.584696          0.05
     2.582675         13.64
     2.573421          0.05
     2.570380          0.39
     2.568637          0.55
     2.567247         12.42
     2.565055          0.20
     2.564817          0.01
     2.564451          0.10
     2.564016          1.48
     2.561217         14.66
     2.559386          0.09
     2.557551          0.73
     2.556292          0.05
     2.549219         14.77
     2.547839          0.97
     2.541092         16.64
     2.532689          1.07
     2.515580          2.79
     2.511991          4.78
     2.508934         26.84
     2.503469          0.11
     2.489243          0.57
     2.488739          1.67
     2.488427         21.86
     2.485480         22.23
     2.482647         17.67
     2.482204          1.28
     2.482117          6.64
     2.474174         17.56
     2.473765          5.62
     2.466332          0.20
     2.465988          0.33
     2.463871          1.65
     2.449506          3.38
     2.447284         10.88
     2.442780          0.02
     2.437519          1.30
     2.432960          0.00
     2.432839          7.01
     2.429713          0.19
     2.428535          2.93
     2.415286          5.14
     2.412184         31.67
     2.411438          2.93
     2.409999          5.62
     2.398181          0.12
     2.396850         16.57
     2.394669          1.02
     2.393624          1.44
     2.392338         31.14
     2.392040         20.50
     2.388954          0.00
     2.387928          0.00
     2.381244         30.01
     2.376900          0.15
     2.365829          0.01
     2.361946          0.18
     2.357248          0.20
     2.356098          0.32
     2.355719          0.22
     2.351885          0.54
     2.349297          0.97
     2.349282         29.91
     2.346795          3.17
     2.345495          0.07
     2.344327          0.74
     2.341529          0.03
     2.340031          2.83
     2.333092          0.29
     2.332508          0.98
     2.332421          3.49
     2.329189          0.00
     2.327567          0.27
     2.320671         23.36
     2.320063          0.04
     2.316830         17.93
     2.311537          3.34
     2.301707          0.12
     2.298130          2.16
     2.297709          0.32
     2.295144          0.69
     2.293733          0.04
     2.292389          5.75
     2.286474          0.18
     2.286460          1.72
     2.283778          0.02
     2.281580          1.30
     2.271870          5.13
     2.267047          0.00
     2.257534          1.84
     2.240354          0.18
     2.230887         20.57
     2.229349          0.32
     2.228436          3.31
     2.227230         17.11
     2.225190          0.07
     2.223608          0.34
     2.222324          0.04
     2.222086          0.03
     2.221578         19.41
     2.221260          1.36
     2.218788          2.38
     2.217233          5.80
     2.214591          0.23
     2.213420          0.02
     2.209618          0.01
     2.208094          3.91
     2.203608          0.18
     2.202423          0.79
     2.199839          0.00
     2.199058         35.13
     2.197736          7.50
     2.192522          3.32
     2.186896          0.35
     2.186529          0.09
     2.182339          0.05
     2.177729          0.02
     2.177356          2.89
     2.176881          2.56
     2.173818          0.71
     2.173483          2.82
     2.170661          0.61
     2.169552          0.69
     2.169068          2.59
     2.166746          0.24
     2.164815          0.00
     2.164448          0.00
     2.164190          1.58
     2.163761          0.01
     2.160647          0.78
     2.160090          0.62
     2.159466         37.50
     2.154519          1.28
     2.148006          0.01
     2.141521          0.00
     2.138903          0.76
     2.136697          0.04
     2.135951          0.22
     2.133835          0.03
     2.132701          0.03
     2.132501          0.50
     2.127408          0.01
     2.127060          1.76
     2.124483          0.02
     2.124042          0.29
     2.122644          0.98
     2.118220          0.14
     2.116336          1.05
     2.115787          0.21
     2.115092          0.01
     2.111471          0.02
     2.108384          0.29
     2.104478          4.27
     2.103938          0.00
     2.102948          0.93
     2.096447         25.39
     2.090171          7.16
     2.089105          9.75
     2.088800          0.04
     2.088090          4.24
     2.083190          0.51
     2.078745          0.34
     2.077011          3.38
     2.074754          0.23
     2.072317          0.24
     2.070063          0.12
     2.069550          1.98
     2.069153          0.01
     2.068832          2.72
     2.066962          2.10
     2.063748          0.41
     2.063087          4.05
     2.061596          2.34
     2.061405          3.41
     2.058772          1.06
     2.055672          0.02
     2.045558          0.08
     2.039955          0.00
     2.038501          0.22
     2.035723          0.25
     2.033860          4.33
     2.032943          0.02
     2.031962          0.03
     2.031391          0.00
     2.027897          0.01
     2.025332          0.76
     2.024012          0.03
     2.023318          0.82
     2.016716          1.44
     2.016277          0.33
     2.015802          0.03
     2.012049          0.30
     2.007381         25.95
     2.007147         21.68
     2.003797          0.13
     2.002131          0.00
     2.001262          0.30
     2.001195          1.54
     1.997253          0.26
     1.997051          0.17
     1.997022          0.01
     1.996832          9.68
     1.996598          4.66
     1.995090          0.06
     1.994848          0.43
     1.994803          0.17
     1.994266          7.33
     1.993612          0.89
     1.990742         29.57
     1.989444          0.35
     1.989232          1.48
     1.987023          8.80
     1.984955          0.01
     1.984907          0.32
     1.981771          0.04
     1.979197          0.34
     1.975161          1.22
     1.974753          1.31
     1.972181          0.09
     1.967764          1.01
     1.967544          2.44
     1.959676          2.41
     1.958441          3.55
     1.956786          0.00
     1.955954          0.55
     1.952694          1.71
     1.951054          0.78
     1.949997          0.12
     1.949289          0.02
     1.949074          0.01
     1.948627         15.26
     1.947564          0.00
     1.947401          0.05
     1.947137          0.00
     1.946626          0.01
     1.944226          0.31
     1.943771          0.07
     1.940708          0.22
     1.940161          4.13
     1.937355          0.00
     1.937115          0.11
     1.933123          0.00
     1.932242          0.23
     1.927115          0.04
     1.926280          0.13
     1.925483          0.05
     1.924182          0.08
     1.922550          0.02
     1.921391          0.03
     1.921186          0.27
     1.920036          0.14
     1.917325          0.01
     1.917317          1.07
     1.916786          3.15
     1.913646          0.03
     1.913621          0.18
     1.913527          0.25
     1.913428          7.40
     1.913276          0.74
     1.911170          2.45
     1.910605          0.16
     1.910392          9.97
     1.910353          0.00
     1.908118          1.21
     1.906925          0.77
     1.903569          0.23
     1.903428          1.12
     1.901698          0.75
     1.900164          0.23
     1.899554          0.69
     1.894926          0.01
     1.888972          0.90
     1.887661          0.03
     1.886394          0.00
     1.881426          1.26
     1.878395          1.56
     1.876884          2.75
     1.874536          1.11
     1.871475          1.19
     1.870890          5.21
     1.870089          0.65
     1.869686          0.00
     1.868742         15.59
     1.868364          0.12
     1.863112          1.98
     1.861653          1.11
     1.861466          0.46
     1.861122          6.23
     1.860907          0.02
     1.856025          0.17
     1.855793          0.04
     1.855324          0.10
     1.851643          0.04
     1.851315          0.30
     1.850654          1.15
     1.850436          0.40
     1.849223          0.73
     1.848010          0.00
     1.847782          0.00
     1.846609          0.00
     1.845816          0.00
     1.845069          0.00
     1.843723          0.06
     1.843490          0.00
     1.843225          0.26
     1.839579          1.15
     1.838570          2.38
     1.837502          0.27
     1.837422          1.65
     1.834951          0.02
     1.833456          0.02
     1.833004          0.08
     1.830779          0.02
     1.830638          1.78
     1.830460          0.25
     1.829771          1.12
     1.827786          0.13
     1.825942          0.01
     1.824576          0.11
     1.824356          5.72
     1.822947          0.49
     1.822771          0.02
     1.822451          0.03
     1.821083          0.14
     1.820597          0.02
     1.820378          0.01
##############################################################################
###                            Comments                                    ###
##############################################################################
###   Diffraction pattern calculated by Match!. 
###   I/Ic calculated by Match!. 
###   Space group has been derived from given symmetry operations. 
##############################################################################


