##############################################################################
###               Crystal structure data exported by Match!                ###
##############################################################################
###                           Data published by:                           ###
###                                                                        ###
###               COD (Crystallography Open Database)
##############################################################################
data_6000386
_citation_journal_full    'Journal of Applied Crystallography'
_citation_journal_volume  '31'
_citation_page_first  '789'
_citation_page_last   '797'
_citation_year  '1998'
_citation_title  'The application of resonant scattering techniques to ab initio structuresolution from powder data using SrSO4 as a test case'
loop_
_publ_author_name
  'Burger K.'
  'Cox D.'
  'Papoular R.'
  'Prandl W.'
_chemical_formula_sum  'O4 S Sr'
_chemical_name_mineral  'Celestine'
_chemical_name_common  'Strontium Sulfate'
_symmetry_space_group_name_H-M 'P n m a'
_space_group_IT_number 62
_space_group_crystal_system 'orthorhombic'
loop_
_symmetry_equiv_pos_as_xyz
   'x, y, z'
   '-x+0.5, -y, z+0.5'
   'x+0.5, -y+0.5, -z+0.5'
   '-x, y+0.5, -z'
   '-x, -y, -z'
   'x+0.5, y, -z+0.5'
   '-x+0.5, y+0.5, z+0.5'
   'x, -y+0.5, z'
_cell_length_a        8.35929
_cell_length_b        5.35083
_cell_length_c        6.86939
_cell_angle_alpha    90.0000
_cell_angle_beta     90.0000
_cell_angle_gamma    90.0000
loop_
_atom_site_label
_atom_site_fract_x
_atom_site_fract_y
_atom_site_fract_z
_atom_site_occupancy
_atom_site_B_iso_or_equiv
sr      0.184   0.250   0.158    1.00000    1.000
s      0.437   0.750   0.185    1.00000    1.000
o      0.598   0.750   0.095    1.00000    1.000
o      0.307   0.750   0.040    1.00000    1.000
o      0.421   0.974   0.311    1.00000    1.000
_cell_measurement_wavelength    1.541874
_cell_measurement_radiation   'x-rays'
_exptl_crystal_density_diffrn    3.970000
loop_
_pd_peak_d_spacing
_pd_peak_intensity
     5.307277          0.09
     4.221315         95.18
     4.179645         51.86
     3.768115        345.69
     3.570644         16.27
     3.434695        262.41
     3.293869        943.89
     3.176972        533.43
     2.970078       1000.00
     2.731753        638.12
     2.675415        504.44
     2.653638         13.57
     2.582092         59.86
     2.389030         34.64
     2.377344        160.93
     2.325489          2.13
     2.253317        143.62
     2.208442         43.17
     2.163900         67.47
     2.141071        261.88
     2.110657          9.09
     2.105142          0.08
     2.089823         13.74
     2.046433        478.93
     2.041404        393.94
     2.008181         34.73
     2.006070        332.13
     1.999348        380.12
     1.946623        143.08
     1.884058          6.33
     1.880131          0.15
     1.872877          0.06
     1.857931         52.46
     1.785322          1.44
     1.769092        172.51
     1.726367         34.37
     1.717348         31.04
     1.703150          4.42
     1.693543          0.57
     1.690688         28.51
     1.682468          0.21
     1.682214         39.97
     1.679670         79.24
     1.646934          0.54
     1.640484         68.60
     1.624440         17.66
     1.606078          6.05
     1.604777         36.91
     1.601549        123.64
     1.595615         95.43
     1.588486         11.18
     1.555269        116.29
     1.554389         18.98
     1.543593          5.96
     1.522800         19.41
     1.503234          9.82
     1.485039          0.64
     1.483114          0.79
     1.480305         16.98
     1.475659        187.46
     1.467531          3.83
     1.461979          0.18
     1.447209         56.31
     1.445225         33.95
     1.424098         92.70
     1.410286         22.05
     1.407105          0.01
     1.393215          1.35
     1.388532         38.23
     1.387584         75.39
     1.376331         77.14
     1.365877         12.29
     1.365416          1.41
     1.356674         49.49
     1.355690          1.01
     1.350252         41.25
     1.348262         53.36
     1.337708         80.13
     1.337020          0.16
     1.333561          0.07
     1.330965          0.39
     1.330714         41.89
     1.326819          0.94
     1.323020         86.66
     1.314167          0.01
     1.310535          1.24
     1.309211         51.31
     1.305175         15.03
     1.297138          0.06
     1.291046          0.17
     1.287818         34.12
     1.282928         18.84
     1.274045          5.25
     1.267999         56.64
     1.261808          0.71
     1.256038         41.77
     1.255032          6.48
     1.252683          5.54
     1.246505         14.22
     1.235706         19.59
     1.232874         50.30
     1.232235          3.78
     1.223782         25.41
     1.216185          4.41
     1.209297          5.88
     1.205433        105.12
     1.200990          9.18
     1.200806         11.87
     1.197941          0.84
     1.194515          0.15
     1.190215          0.13
     1.188672          1.27
     1.187773         10.83
     1.186240          8.65
     1.176539          0.02
     1.173034         31.15
     1.169003         15.68
     1.167189          0.45
     1.162744          4.99
     1.161820          0.40
     1.149445         18.12
     1.149089          4.18
     1.148015         47.29
     1.144898         21.47
     1.144175          3.70
     1.137841          5.96
     1.134309          0.55
     1.130682          9.72
     1.127953         35.90
     1.126659          1.52
     1.122471          0.30
     1.119229          6.92
     1.113316          5.30
     1.111804         75.09
     1.109650          0.15
     1.104221          3.82
     1.103698         12.14
     1.097956         23.16
     1.093343          0.94
     1.088417         22.09
     1.087460          0.06
     1.084195         30.79
     1.081950          3.90
     1.081434         45.84
     1.079306          0.10
     1.076999          1.63
     1.076556         32.50
     1.070536          0.21
     1.067006         52.92
     1.064567         17.56
     1.061455          0.00
     1.060488          7.18
     1.058991          0.34
     1.058839          0.67
     1.057411          1.32
     1.055329         10.44
     1.054991         56.96
     1.053289         27.84
     1.052571         18.87
     1.049052          7.40
     1.047018         18.27
     1.045821          3.41
     1.044911         25.70
     1.044324          0.01
     1.041167          6.08
     1.039358         46.95
     1.038841          3.51
     1.038698         30.00
     1.036723         23.89
     1.033029          1.23
     1.032638          8.39
     1.025540          1.02
     1.025114         30.09
     1.023216          5.27
     1.020702         12.61
     1.014299          7.96
     1.014173         13.98
     1.013818         12.36
     1.010915          1.28
##############################################################################
###                            Comments                                    ###
##############################################################################
###   Diffraction pattern calculated by Match!. 
###   I/Ic calculated by Match!. 
##############################################################################


