##############################################################################
###               Crystal structure data exported by Match!                ###
##############################################################################
###                           Data published by:                           ###
###                                                                        ###
###               COD (Crystallography Open Database)
##############################################################################
data_9009234
_citation_journal_full    'Clays and Clay Minerals'
_citation_journal_volume  '41'
_citation_page_first  '738'
_citation_page_last   '744'
_citation_year  '1993'
_citation_title  'Rietveld refinement of the kaolinite structure at 1.5 KNote: sample at T = 1.5 KLocality: Keokuk, Iowa, USA'
loop_
_publ_author_name
  'Bish D. L.'
_chemical_formula_sum  'Al2 H4 O9 Si2'
_chemical_name_mineral  'Kaolinite'
_symmetry_space_group_name_H-M 'C 1'
_space_group_IT_number 1
_space_group_crystal_system 'triclinic'
loop_
_symmetry_equiv_pos_as_xyz
   'x, y, z'
   'x+0.5, y+0.5, z'
_cell_length_a        5.15350
_cell_length_b        8.94190
_cell_length_c        7.39060
_cell_angle_alpha    91.9260
_cell_angle_beta    105.0460
_cell_angle_gamma    89.7970
loop_
_atom_site_label
_atom_site_fract_x
_atom_site_fract_y
_atom_site_fract_z
_atom_site_occupancy
_atom_site_B_iso_or_equiv
al      0.289   0.497   0.466    1.00000    3.158
al      0.793   0.329   0.465    1.00000    3.158
si      0.989   0.340   0.091    1.00000    3.316
si      0.507   0.167   0.094    1.00000    3.316
o      0.049   0.348   0.317    1.00000    3.474
o      0.113   0.660   0.319    1.00000    3.474
o      0.000   0.500   0.000    1.00000    3.474
o      0.204   0.229   0.030    1.00000    3.474
o      0.197   0.764   0.001    1.00000    3.474
o      0.050   0.971   0.325    1.00000    3.079
o      0.960   0.166   0.607    1.00000    3.079
o      0.037   0.473   0.605    1.00000    3.079
o      0.038   0.858   0.609    1.00000    3.079
h      0.145   0.065   0.326    1.00000    5.763
h      0.063   0.164   0.739    1.00000    3.710
h      0.036   0.506   0.732    1.00000    4.421
h      0.534   0.315   0.728    1.00000    3.868
_cell_measurement_wavelength    1.541874
_cell_measurement_radiation   'x-rays'
_cell_measurement_temperature    1.500000
_exptl_crystal_density_diffrn    2.608000
loop_
_pd_peak_d_spacing
_pd_peak_intensity
     7.133144       1000.00
     4.468360        157.11
     4.357960        519.44
     4.338116          4.64
     4.184805        462.92
     4.125933        226.83
     3.845757        330.63
     3.730358        153.65
     3.566572        506.97
     3.412504         17.05
     3.361858        184.48
     3.156392         42.23
     3.098806         52.22
     2.834668          6.42
     2.742597         70.75
     2.565806         52.99
     2.562078         66.00
     2.549983         58.36
     2.534859         90.78
     2.512615         45.73
     2.495689         98.75
     2.488377        102.32
     2.475914         23.31
     2.377715         75.26
     2.346585        187.09
     2.337932         14.92
     2.334852        184.84
     2.301188         20.56
     2.286617        229.69
     2.254305         18.72
     2.234180          1.76
     2.231474          0.29
     2.218713          9.27
     2.192262         15.57
     2.180078         13.59
     2.178980          4.20
     2.169058          2.84
     2.152936          2.15
     2.129138         15.51
     2.111757          4.67
     2.092402          1.03
     2.070179          3.31
     2.062966         10.08
     1.997530         66.45
     1.984832         64.86
     1.971042          4.83
     1.947800         24.38
     1.931567         42.16
     1.923685          1.12
     1.922878         19.80
     1.899740          2.82
     1.899235         26.42
     1.865179         23.30
     1.841464         21.04
     1.840224         26.97
     1.829960         18.68
     1.811199          8.02
     1.807431          3.78
     1.787853          0.01
     1.783286         20.20
     1.706252         17.77
     1.690503         12.04
     1.687112          2.15
     1.685493          5.85
     1.685031          0.35
     1.680929          0.11
     1.679957          4.97
     1.679420          3.27
     1.679285         14.12
     1.675902          3.13
     1.669128         51.39
     1.666887         25.46
     1.660835          5.78
     1.658524         51.74
     1.658013          7.31
     1.656404          7.13
     1.654429         11.77
     1.648126         23.44
     1.637288          4.56
     1.632628          8.38
     1.632170          5.00
     1.629486          3.42
     1.619731         17.85
     1.613516         47.55
     1.604354          8.71
     1.601358          3.40
     1.594448          4.23
     1.592728          1.60
     1.587116         25.08
     1.578196          1.06
     1.572195          4.36
     1.557610          2.31
     1.549403         20.12
     1.548718          5.94
     1.545482          8.15
     1.541141         15.35
     1.540527          0.73
     1.536474          1.53
     1.531878         19.66
     1.524371          3.74
     1.511617          5.94
     1.507310          3.39
     1.505485          1.92
     1.491636          2.03
     1.489453         45.23
     1.489354         46.50
     1.486018         45.70
     1.471592          4.77
     1.470087          7.25
     1.467984          5.12
     1.464851          0.22
     1.460381          7.86
     1.456925         11.06
     1.456049          2.68
     1.453868          8.15
     1.452653          5.87
     1.449175          0.85
     1.448232          9.70
     1.446039          6.75
     1.438051         17.86
     1.430720          4.26
     1.426629          6.70
     1.417334          8.47
     1.412623          0.77
     1.405018          7.55
     1.401126          4.84
     1.398496          1.48
     1.396781          5.51
     1.394935          6.70
     1.391265          6.85
     1.388956          4.39
     1.375311          3.44
     1.372570          0.46
     1.371299         13.77
     1.368149          4.47
     1.361562          1.24
     1.361465          6.52
     1.358166          2.31
     1.355546          1.91
     1.354629          2.69
     1.354429          1.28
     1.352097          9.37
     1.345906          1.31
     1.341031         38.35
     1.339868          1.73
     1.328846          0.07
     1.319521          0.69
     1.305799         30.19
     1.302642          0.24
     1.300456          0.70
     1.298628         28.47
     1.291873          9.56
     1.286261          3.04
     1.284445          8.46
     1.283382         11.04
     1.282903          3.99
     1.281919          2.54
     1.281039          4.60
     1.278482          2.28
     1.278470          1.80
     1.274992          4.56
     1.267429         11.05
     1.267025          0.22
     1.264338          3.74
     1.260498          1.75
     1.256308          1.66
     1.256010          3.18
     1.248876          0.03
     1.247845         14.71
     1.246847          0.28
     1.244189         12.16
     1.243453          2.52
     1.242881          4.84
     1.239886          2.83
     1.239414          2.20
     1.238541          5.01
     1.238234          5.40
     1.238052          1.12
     1.237957          1.45
     1.237312          9.15
     1.236680          0.78
     1.235264          3.48
     1.235039          0.75
     1.233693          6.25
     1.233331          1.05
     1.230921          2.35
     1.230678          7.22
     1.226573          4.07
     1.224872          1.61
     1.221299          3.67
     1.221298          4.99
     1.219170          1.25
     1.217837          4.15
     1.213759          1.64
     1.213511          1.61
     1.212660          1.61
     1.212230          4.05
     1.208103          2.81
     1.205961          1.20
     1.205324          1.11
     1.203778          0.73
     1.201253          2.16
     1.200816          2.40
     1.200258          4.72
     1.197528          1.66
     1.196933          1.02
     1.194478          2.34
     1.193629          0.74
     1.191898          0.01
     1.188857          5.73
     1.187341          0.77
     1.184354          0.40
     1.181429          1.68
     1.180482          1.10
     1.175127          2.21
     1.173459          3.81
     1.173292          1.02
     1.169609          1.42
     1.168966          1.16
     1.167426          0.58
     1.167259          1.86
     1.167068          2.68
     1.167029          1.02
     1.162690          0.88
     1.158675          1.45
     1.158398          1.02
     1.157589          2.16
     1.155616          0.13
     1.155576          0.59
     1.151301          0.15
     1.150594          2.51
     1.145758          1.54
     1.143309          0.80
     1.142355          1.78
     1.139651          0.77
     1.139471          0.28
     1.139346          0.16
     1.137501          1.35
     1.136377          0.35
     1.133518          2.02
     1.133487          0.82
     1.130056          1.17
     1.127152          8.16
     1.124587          0.87
     1.124221          0.90
     1.120619          0.76
     1.120173          0.51
     1.119635          1.08
     1.118663          0.47
     1.117090          1.11
     1.115737          0.80
     1.113111          0.88
     1.112814          1.25
     1.112580          1.42
##############################################################################
###                            Comments                                    ###
##############################################################################
###   Diffraction pattern calculated by Match!. 
###   I/Ic calculated by Match!. 
###   Space group has been derived from given symmetry operations. 
##############################################################################


