##############################################################################
###               Crystal structure data exported by Match!                ###
##############################################################################
###                           Data published by:                           ###
###                                                                        ###
###               COD (Crystallography Open Database)
##############################################################################
data_9013725
_citation_journal_full    'American Mineralogist'
_citation_journal_volume  '95'
_citation_page_first  '348'
_citation_page_last   '361'
_citation_year  '2010'
_citation_title  'Factors responsible for crystal-chemical variations in the solid solutionsfrom illite to aluminoceladonite and from glauconite to celadoniteLocality: Tushlay, MongoliaSample Name: 136'
loop_
_publ_author_name
  'Drits V. A.'
  'Zviagina B. B.'
  'McCarty D. K.'
  'Salyn A. L.'
_chemical_formula_sum  'Al2 H2 K O12 Si4'
_chemical_name_mineral  'Aluminoceladonite'
_symmetry_space_group_name_H-M 'C 1 2/m 1'
_space_group_IT_number 12
_space_group_crystal_system 'monoclinic'
loop_
_symmetry_equiv_pos_as_xyz
   'x, y, z'
   'x+0.5, y+0.5, z'
   '-x, y, -z'
   '-x+0.5, y+0.5, -z'
   '-x, -y, -z'
   '-x+0.5, -y+0.5, -z'
   'x, -y, z'
   'x+0.5, -y+0.5, z'
_cell_length_a        5.22270
_cell_length_b        9.01950
_cell_length_c       10.07670
_cell_angle_alpha    90.0000
_cell_angle_beta    100.8200
_cell_angle_gamma    90.0000
loop_
_atom_site_label
_atom_site_fract_x
_atom_site_fract_y
_atom_site_fract_z
_atom_site_occupancy
_atom_site_B_iso_or_equiv
k      0.000   0.500   0.500    1.00000    1.000
al      0.500   0.167   0.000    1.00000    1.000
si      0.417   0.330   0.273    1.00000    1.000
o      0.357   0.321   0.110    1.00000    1.000
o      0.459   0.500   0.324    1.00000    1.000
o      0.685   0.244   0.337    1.00000    1.000
o      0.419   0.000   0.109    1.00000    1.000
_cell_measurement_wavelength    1.541874
_cell_measurement_radiation   'x-rays'
_exptl_crystal_density_diffrn    2.845000
loop_
_pd_peak_d_spacing
_pd_peak_intensity
     9.897554        250.02
     4.948777        187.43
     4.509750        494.95
     4.459091          0.54
     4.339369        359.56
     4.103827        178.93
     3.837769         45.82
     3.619389       1000.00
     3.333301        347.05
     3.299185        314.02
     3.072713        844.98
     2.886971        270.84
     2.662720        380.64
     2.604473        150.11
     2.593846        342.80
     2.569639        421.28
     2.564925        220.78
     2.474943         25.58
     2.474389         26.07
     2.466696         45.40
     2.452671         63.94
     2.392681        287.64
     2.376914        197.43
     2.330985         45.36
     2.255374         79.47
     2.254875         48.21
     2.238827         10.26
     2.229545         91.78
     2.212663         11.40
     2.198542        120.98
     2.169684         51.93
     2.169311          0.12
     2.140191        196.68
     2.120408        105.34
     2.102728         85.94
     2.051913          2.67
     2.027764          0.00
     2.005314         38.76
     1.979511        181.86
     1.975750         43.34
     1.951100        115.25
     1.929791         14.93
     1.918885         11.51
     1.881833          7.60
     1.862604          0.01
     1.861612          0.20
     1.812583          2.31
     1.809695         51.85
     1.732246         34.02
     1.721549          1.18
     1.711116         28.32
     1.709159         35.37
     1.708794          2.05
     1.704741          1.55
     1.701750          2.29
     1.694859         25.24
     1.693505          0.52
     1.688471          6.93
     1.680025         23.70
     1.666820          0.35
     1.666650         38.78
     1.659966         16.39
     1.651009        241.14
     1.649592          7.37
     1.640993         88.53
     1.636453          7.32
     1.635880         44.20
     1.634107        115.04
     1.623028         60.60
     1.617057          1.19
     1.608120          8.69
     1.588733         86.66
     1.579302         82.50
     1.552304         18.61
     1.549205          2.55
     1.544706         30.11
     1.536357         10.18
     1.526955         30.82
     1.523644         64.53
     1.508417         59.13
     1.506426        220.70
     1.506176         96.56
     1.503250        115.65
     1.492203          9.31
     1.487608         26.53
     1.486364         18.88
     1.486206         18.53
     1.486010          2.01
     1.475436          5.18
     1.470983         29.18
     1.455934          9.57
     1.446456          1.71
     1.444791         11.37
     1.443485          1.96
     1.441648          4.32
     1.438355          0.04
     1.436034          7.99
     1.435874          0.10
     1.416226          0.99
     1.416018          9.92
     1.413936         10.60
     1.396557          2.07
     1.377209          3.01
     1.373689          7.99
     1.373191         74.11
     1.367942          0.10
     1.363561          0.31
     1.363079          0.61
     1.350029         59.78
     1.349178         18.42
     1.335721        108.02
     1.332104          6.71
     1.331360         24.54
     1.323179          4.84
     1.303393         34.00
     1.302237         47.48
     1.301949         76.05
     1.296923         85.35
     1.294322         33.08
     1.294163         14.55
     1.293321         71.41
     1.288579          2.43
     1.284820          0.39
     1.284742         40.44
     1.284203          0.21
     1.282462          0.11
     1.282231         10.51
     1.279256         39.37
     1.279167         13.95
     1.270488         49.69
     1.262454          0.15
     1.252607         19.73
     1.252463          2.74
     1.252145          0.10
     1.251120         17.57
     1.249682          0.76
     1.248020         28.15
     1.246945          2.00
     1.245674         12.23
     1.244394          3.87
     1.242455         16.69
     1.241002          8.90
     1.237471          0.41
     1.237194         20.42
     1.233554          8.31
     1.233348         24.03
     1.232851          0.47
     1.230620         22.40
     1.226336          0.01
     1.225018         17.72
     1.223126          2.95
     1.217490         23.85
     1.214619          8.67
     1.211159          3.29
     1.206479          1.13
     1.206463         17.93
     1.198703         25.28
     1.197907         27.30
     1.197827         19.84
     1.197174         20.56
     1.196341          0.00
     1.195907          0.02
     1.194725          8.71
     1.193360          3.48
     1.193111          1.11
     1.191235         10.09
     1.188457          1.34
     1.186769         12.17
     1.182361          4.06
     1.178168          3.39
     1.175326         10.30
     1.169796          4.00
     1.166809         19.37
     1.165493          5.47
     1.160290          4.74
     1.158296          5.24
     1.151341          1.08
     1.150320          1.51
     1.149222         20.39
     1.149221          2.83
     1.144996          2.84
     1.143706          8.92
     1.136601          0.82
     1.135350          5.76
     1.128437         12.00
     1.127687          0.00
     1.127437          0.19
     1.126073          2.37
     1.122535          0.43
     1.122432          8.26
     1.120193         11.54
     1.119753          0.86
     1.119414         32.82
     1.114773          1.85
     1.114630          1.44
     1.114621          0.49
     1.112665          0.56
     1.112606         12.44
     1.111100          2.04
     1.110703          1.17
     1.106332         56.00
     1.105152          2.06
     1.099728          0.77
     1.099271          2.20
     1.097548         22.10
     1.095510          0.38
     1.092529          0.77
     1.088195          1.93
     1.087372          2.05
     1.086444          0.03
     1.084842          0.15
     1.084655          1.31
     1.081544          5.56
     1.079235          1.37
     1.077635          9.85
     1.070096         47.68
     1.068420          1.10
     1.066863          0.39
     1.063780          0.54
     1.063769          0.77
     1.060204         18.83
     1.057078          2.08
     1.055696          1.30
     1.053416          0.49
     1.053286          0.03
     1.051364          1.35
     1.048899         29.88
     1.047137          0.07
     1.040519         15.24
     1.040495          0.73
     1.037799         12.87
     1.037401          1.29
     1.035641          1.19
     1.035560          0.15
     1.034656          3.04
     1.033875          0.00
     1.032128          0.28
     1.032068          0.31
     1.031712          3.45
     1.030985          0.32
     1.029932         18.87
     1.029637          1.87
     1.029398          0.34
     1.029053          2.96
     1.025996          1.13
     1.025957          3.98
     1.025803          0.44
     1.024684          3.81
     1.024238         13.64
     1.019396          7.52
     1.018792          1.54
     1.018654         14.50
     1.015528          4.92
     1.013882          8.01
     1.011846          2.36
     1.011317         16.82
     1.009382          0.02
     1.007434          0.19
     1.006963         15.55
##############################################################################
###                            Comments                                    ###
##############################################################################
###   Diffraction pattern calculated by Match!. 
###   I/Ic calculated by Match!. 
###   Space group has been derived from given symmetry operations. 
##############################################################################


