##############################################################################
###               Crystal structure data exported by Match!                ###
##############################################################################
###                           Data published by:                           ###
###                                                                        ###
###               COD (Crystallography Open Database)
##############################################################################
data_9013444
_citation_journal_full    'Journal of Solid State Chemistry'
_citation_journal_volume  '23'
_citation_page_first  '327'
_citation_page_last   '339'
_citation_year  '1978'
_citation_title  'Oxydes de plomb. IV. Evolution structurale de l'oxyde Pb3O4 entre 240 et 5 K et mecanisme de la transition Locality: synthetic Sample: T = 180 K'
loop_
_publ_author_name
  'Gavarri J. R.'
  'Weigel D.'
  'Hewat A. W.'
_chemical_formula_sum  'O4 Pb3'
_chemical_name_mineral  'Minium'
_symmetry_space_group_name_H-M 'P b a m'
_space_group_IT_number 55
_space_group_crystal_system 'orthorhombic'
loop_
_symmetry_equiv_pos_as_xyz
   'x, y, z'
   '-x, -y, z'
   'x+0.5, -y+0.5, -z'
   '-x+0.5, y+0.5, -z'
   '-x, -y, -z'
   'x, y, -z'
   '-x+0.5, y+0.5, z'
   'x+0.5, -y+0.5, z'
_cell_length_a        8.81930
_cell_length_b        8.80080
_cell_length_c        6.56180
_cell_angle_alpha    90.0000
_cell_angle_beta     90.0000
_cell_angle_gamma    90.0000
loop_
_atom_site_label
_atom_site_fract_x
_atom_site_fract_y
_atom_site_fract_z
_atom_site_occupancy
_atom_site_B_iso_or_equiv
pb      0.000   0.500   0.248    1.00000    1.000
pb      0.142   0.160   0.000    1.00000    1.000
pb      0.164   0.856   0.500    1.00000    1.000
o      0.672   0.172   0.242    1.00000    1.000
o      0.094   0.636   0.000    1.00000    1.000
o      0.135   0.596   0.500    1.00000    1.000
_cell_measurement_wavelength    1.541874
_cell_measurement_radiation   'x-rays'
_cell_measurement_temperature    180.000000
_exptl_crystal_density_diffrn    8.941000
loop_
_pd_peak_d_spacing
_pd_peak_intensity
     6.561800          0.21
     6.229636        224.14
     4.517883          0.01
     4.409650         11.59
     4.400400         13.26
     3.942452          7.18
     3.937488          6.98
     3.659985         24.37
     3.654691         14.51
     3.379403        998.36
     3.376276       1000.00
     3.280900        101.05
     3.114818        274.36
     2.902916        743.21
     2.813883          0.00
     2.788321        495.26
     2.783641        488.45
     2.632247        274.68
     2.630276        268.14
     2.566240          1.56
     2.562590          2.74
     2.521865          1.58
     2.520564          1.64
     2.444451         20.59
     2.442478         13.17
     2.290668         35.03
     2.289044         39.57
     2.258941        102.84
     2.204825         14.11
     2.200200         16.41
     2.187267          0.10
     2.138730          1.17
     2.134771          0.25
     2.124673          1.30
     2.122600          1.09
     2.089997          5.64
     2.086056          3.50
     2.076545         21.22
     2.063757          0.29
     2.033444        115.73
     2.030041        109.94
     1.979776          0.10
     1.971226        108.85
     1.968744        112.66
     1.960204         17.76
     1.959462          3.26
     1.959186         10.92
     1.958648          2.85
     1.912629        186.94
     1.912062        198.90
     1.887879          7.30
     1.885699          7.21
     1.829993        231.53
     1.827346        240.25
     1.791669          9.62
     1.790015          0.21
     1.789340          6.12
     1.762525          2.82
     1.761489          3.33
     1.754633        529.31
     1.729467         20.92
     1.726118         22.37
     1.720954          0.90
     1.719852          0.51
     1.702190         10.69
     1.701257          9.52
     1.689702         14.98
     1.688138         13.27
     1.672355          7.66
     1.669327          3.73
     1.640450        131.23
     1.637228          0.05
     1.634740          0.22
     1.630000         11.07
     1.629414         12.76
     1.588528        125.77
     1.586370          8.64
     1.586255        131.74
     1.557409         97.14
     1.552802          2.54
     1.552664          3.05
     1.551956          3.65
     1.551184          0.99
     1.537505          1.33
     1.537112          1.51
     1.529922         58.52
     1.529182         41.09
     1.527733         42.46
     1.527602         55.26
     1.515313          0.24
     1.514567          0.75
     1.514285          0.72
     1.511656         23.30
     1.510163         21.17
     1.505961          0.04
     1.473072         10.70
     1.471690          6.44
     1.469883         59.95
     1.466800         60.61
     1.464956          0.42
     1.464306          2.02
     1.463288          3.85
     1.463173          0.13
     1.451458         48.09
     1.449801          4.15
     1.446925          2.41
     1.434337          3.00
     1.431472          2.56
     1.415659         16.94
     1.413902        113.69
     1.413291        112.58
     1.412980         20.26
     1.406942          0.52
     1.394160          2.81
     1.391820          2.55
     1.376214          0.62
     1.375579          1.08
     1.372937         13.47
     1.372402          4.79
     1.371912          4.17
     1.371818         15.37
     1.363720          0.01
     1.362149          4.87
     1.361807          3.00
     1.361529          0.27
     1.356621          2.72
     1.355003          2.48
     1.346909         34.23
     1.346314         37.40
     1.341414          2.50
     1.339070          2.77
     1.326099          7.02
     1.323896          4.28
     1.316124          4.02
     1.315138          4.74
     1.314151          0.00
     1.312496          0.17
     1.312360          0.04
     1.310708         63.25
     1.309431         64.04
     1.301649          0.69
     1.300755          0.23
     1.288563          0.63
     1.287238          9.07
     1.287003          0.65
     1.284174          0.04
     1.283120         40.23
     1.281295         41.18
     1.269088          2.80
     1.268665          0.02
     1.268590          3.93
     1.260932         43.74
     1.260282         45.40
     1.257837          0.93
     1.257622          0.31
     1.247185          0.15
     1.245927         13.91
     1.245184         41.89
     1.245027         40.60
     1.244673          0.05
     1.243564          6.37
     1.242733          3.07
     1.225250          0.74
     1.224057          0.00
     1.222868          0.32
     1.222226          0.63
     1.221239          0.55
     1.219995          2.09
     1.219929          0.00
     1.218605          0.26
     1.218230          0.95
     1.211232          7.12
     1.209398          0.03
     1.209074          4.97
     1.208439          9.49
     1.206772         11.17
     1.201560          5.11
     1.200813          1.38
     1.200622          5.03
     1.200485          1.63
     1.191109          7.97
     1.190199         10.79
     1.189106         11.57
     1.189057          7.27
     1.187414          0.07
     1.187051          0.41
     1.175648          0.04
     1.174244          0.08
     1.165796         50.99
     1.164826         20.63
     1.164768          9.97
     1.164442         21.44
     1.163744         53.55
     1.158832          0.02
     1.157949          0.10
     1.157653         44.03
     1.156261          3.12
     1.156052          3.50
     1.155978         47.21
     1.145334         64.42
     1.144522         63.17
     1.140047          3.11
     1.138447          1.84
     1.136272          7.69
     1.134490          4.93
     1.129471         59.19
     1.128223          2.41
     1.127796          1.18
     1.127710          0.53
     1.127089          0.54
     1.126468          0.38
     1.125425          0.40
     1.118564         13.98
     1.117997         12.60
     1.111907          8.38
     1.111649         15.49
     1.111498          9.51
     1.111055         14.12
     1.109379          0.11
     1.102412          4.58
     1.100100          5.36
     1.094717         41.36
     1.093864          0.00
     1.093633          2.93
     1.093442         41.99
     1.093333          1.27
     1.092407          1.32
     1.092168          0.69
     1.091984          0.69
     1.091688          3.90
     1.091640          0.00
     1.090283          5.28
     1.087176          5.41
     1.086345          3.14
     1.085133          1.86
     1.084958          3.13
     1.083431          0.70
     1.082607          0.02
     1.081784          0.09
     1.078975         22.84
     1.078465          1.15
     1.077347          1.11
     1.077161         28.94
     1.076840         25.17
     1.069365          4.06
     1.067385          3.69
     1.066949          3.04
     1.066904          4.52
     1.066543          2.30
     1.066292          3.84
     1.062337          2.28
     1.061476         13.93
     1.061346         13.61
     1.061300          2.08
     1.059611          5.82
     1.058166          4.87
     1.055441          1.40
     1.054332          0.60
     1.054046          1.01
     1.053838          0.00
     1.053743          0.00
     1.053538          1.25
     1.052615          1.86
     1.052394          1.68
     1.045444          1.92
     1.044998          1.94
     1.044703          0.51
     1.043028          1.32
     1.038273         26.69
     1.037709          0.14
     1.037256          0.87
     1.036261          0.30
     1.035809          0.11
     1.031953          0.45
     1.031878          6.81
     1.030322          0.77
     1.025633          0.00
     1.025514          0.02
     1.024846          0.13
     1.024495          2.96
     1.023994         28.05
     1.023797          2.62
     1.023385         30.24
     1.023180          1.95
     1.022023          1.64
     1.019424          2.68
     1.018122          0.10
     1.017893          0.09
     1.017851          2.69
     1.016722         14.13
     1.015020         15.00
     1.012232          1.30
     1.011559          2.83
##############################################################################
###                            Comments                                    ###
##############################################################################
###   Diffraction pattern calculated by Match!. 
###   I/Ic calculated by Match!. 
##############################################################################


