##############################################################################
###               Crystal structure data exported by Match!                ###
##############################################################################
###                           Data published by:                           ###
###                                                                        ###
###               COD (Crystallography Open Database)
##############################################################################
data_9005021
_citation_journal_full    'European Journal of Mineralogy'
_citation_journal_volume  '2'
_citation_page_first  '63'
_citation_page_last   '77'
_citation_year  '1990'
_citation_title  'An X-ray study of the temperature dependence of the quartz structureSample: at T = 697 K'
loop_
_publ_author_name
  'Kihara K.'
_chemical_formula_sum  'O2 Si'
_chemical_name_mineral  'Quartz'
_symmetry_space_group_name_H-M 'P 32 2 1 S'
_space_group_IT_number 154
_space_group_crystal_system 'trigonal (hexagonal axes)'
loop_
_symmetry_equiv_pos_as_xyz
   'x, y, z'
   'y, x, -z+0.66667'
   '-y, x-y, z+0.66667'
   '-x, -x+y, -z+0.33333'
   '-x+y, -x, z+0.33333'
   'x-y, -y, -z'
_cell_length_a        4.95090
_cell_length_b        4.95090
_cell_length_c        5.42850
_cell_angle_alpha    90.0000
_cell_angle_beta     90.0000
_cell_angle_gamma   120.0000
loop_
_atom_site_label
_atom_site_fract_x
_atom_site_fract_y
_atom_site_fract_z
_atom_site_occupancy
_atom_site_B_iso_or_equiv
si      0.476   0.000   0.000    1.00000    1.135
o      0.416   0.256   0.128    1.00000    2.510
_cell_measurement_wavelength    1.541874
_cell_measurement_radiation   'x-rays'
_cell_measurement_temperature    697.000000
_exptl_crystal_density_diffrn    2.597000
loop_
_pd_peak_d_spacing
_pd_peak_intensity
     4.287605        197.63
     3.364680       1000.00
     2.475450         55.33
     2.293348         50.78
     2.252322         21.05
     2.143803         45.84
     1.993947         29.54
     1.829016        131.01
     1.809500          1.84
     1.682340         25.13
     1.667116         11.53
     1.620562          1.72
     1.552845         75.23
     1.460829         11.18
     1.429202          6.01
     1.391424         44.84
     1.382774         60.77
     1.382104         26.22
     1.293858         13.58
     1.264602         21.49
     1.237725         14.85
     1.207201         20.90
     1.206755          4.37
     1.190021         20.39
     1.189168         16.08
     1.161623         20.48
     1.146674          1.96
     1.126161          0.25
     1.121560          1.59
     1.089217         18.63
     1.071901          6.19
     1.052482         11.31
     1.051597          5.26
     1.040467         13.06
     1.021597         11.11
##############################################################################
###                            Comments                                    ###
##############################################################################
###   Diffraction pattern calculated by Match!. 
###   I/Ic calculated by Match!. 
###   Space group has been derived from given symmetry operations. 
##############################################################################


