##############################################################################
###               Crystal structure data exported by Match!                ###
##############################################################################

data_2104366
_citation_journal_full    'Acta Crystallographica Section B'
_citation_journal_volume  '65(3)'
_citation_page_first  '334'
_citation_page_last   '341'
_citation_year  '2009'
_citation_title  'Structures of the pseudo-trigonal polymorphs of Cu~2~(OH)~3~Cl'
loop_
_publ_author_name
  'Malcherek Thomas'
  'Schl?ter Jochen'
_chemical_formula_sum  'Cl Cu2 H3 O3'
_chemical_name_common  'Copper(II) chloride hydroxide'
_symmetry_space_group_name_H-M 'P 1 21/n 1'
_space_group_IT_number 14
_space_group_crystal_system 'monoclinic'
loop_
_symmetry_equiv_pos_as_xyz
   'x, y, z'
   '-x+0.5, y+0.5, -z+0.5'
   '-x, -y, -z'
   'x+0.5, -y+0.5, z+0.5'
_cell_length_a        6.12260
_cell_length_b        6.83460
_cell_length_c        9.18410
_cell_angle_alpha    90.0000
_cell_angle_beta     99.5770
_cell_angle_gamma    90.0000
_cell_formula_units_Z 4
loop_
_atom_site_label
_atom_site_fract_x
_atom_site_fract_y
_atom_site_fract_z
_atom_site_occupancy
_atom_site_B_iso_or_equiv
cu      0.000   0.500   0.500    1.00000    1.035
cu      0.000   0.000   0.000    1.00000    1.228
cu      0.253   0.246   0.749    1.00000    1.196
cl      0.112   -0.001   0.306    1.00000    1.413
o      0.281   0.306   0.543    1.00000    1.902
o      0.416   -0.006   0.768    1.00000    1.816
o      0.268   0.684   0.541    1.00000    1.650
h      0.220   0.202   0.473    1.00000    12.633
h      0.230   0.793   0.470    1.00000    12.633
h      0.580   -0.007   0.779    1.00000    12.633
_cell_measurement_wavelength    1.541874
_cell_measurement_radiation   'x-rays'
_cell_measurement_temperature    294.000000
_exptl_crystal_density_diffrn    3.742000
_exptl_crystal_colour            'green'
loop_
_pd_peak_d_spacing
_pd_peak_intensity
     5.460073        499.79
     5.455359       1000.00
     4.677032        214.73
     4.528050         12.34
     4.524758         25.38
     4.265916          0.13
     3.859797          0.03
     3.774777          0.18
     3.421037         49.75
     3.417300         25.64
     3.197243          0.61
     3.018634          9.13
     3.018016         17.27
     2.973933          0.96
     2.899871        114.28
     2.896730        223.24
     2.761350        369.22
     2.761299          0.81
     2.761076        375.60
     2.759247        376.64
     2.730036         85.97
     2.727680        173.68
     2.669520          0.01
     2.584849          0.09
     2.536465          2.07
     2.535780          4.70
     2.535261          0.02
     2.397233          0.02
     2.377985          0.04
     2.338516        160.49
     2.264025        293.24
     2.262407          0.10
     2.262379        580.95
     2.262256          0.62
     2.212583          0.00
     2.212009         19.39
     2.211068         19.32
     2.209363         20.14
     2.149176          0.01
     2.133992          0.77
     2.133267          0.22
     2.132958          0.89
     2.131490          0.87
     2.102520          0.57
     2.048140          0.01
     2.037602         45.34
     2.036731         91.29
     2.035129          0.01
     1.975857          0.97
     1.973697          1.91
     1.952670          0.13
     1.930664          5.38
     1.930477          5.44
     1.929898          5.68
     1.929517          0.03
     1.898747         46.51
     1.898637         92.57
     1.898129          0.16
     1.887842          0.68
     1.887388          0.67
     1.886283          0.75
     1.877079          0.17
     1.829459          0.29
     1.820181         82.74
     1.820024         25.86
     1.818453         51.19
     1.818439          0.18
     1.818375        162.07
     1.791471          0.03
     1.758875          0.04
     1.758733          0.10
     1.750785         17.26
     1.750110         16.80
     1.749333         17.13
     1.749163          0.10
     1.734213          0.19
     1.734078          0.43
     1.710890          0.15
     1.710518        246.87
     1.708650        121.56
     1.702979          0.11
     1.694907          0.04
     1.681866          2.16
     1.681635          3.96
     1.679026          0.47
     1.660461         16.81
     1.659752         33.54
     1.644074          0.60
     1.633145          0.02
     1.632729         25.95
     1.631607         25.63
     1.630670         25.15
     1.613525          0.02
     1.606506         11.23
     1.606398         11.40
     1.605896          0.03
     1.604904         11.16
     1.600481          6.81
     1.600335          0.09
     1.599531          6.89
     1.598621          6.79
     1.568325          0.38
     1.559011          2.38
     1.547011          0.02
     1.523380          0.28
     1.519968          0.00
     1.518766          0.16
     1.509350          0.11
     1.509317         31.46
     1.509171          5.77
     1.509008         62.83
     1.508680          0.10
     1.508342         11.48
     1.508253          0.24
     1.493650         47.20
     1.493490         47.55
     1.492921         47.04
     1.492674          0.06
     1.488592          0.45
     1.487656          0.41
     1.486975          0.31
     1.486967          0.49
     1.486932          0.36
     1.483128          0.10
     1.473838          0.01
     1.473808          0.27
     1.473678         14.79
     1.473672          0.02
     1.472113         29.43
     1.458580          0.05
     1.449935         20.84
     1.448462          0.08
     1.448365         41.70
     1.440571          0.15
     1.422047          0.06
     1.421972          0.02
     1.418702         13.94
     1.418591         14.05
     1.418380         14.06
     1.418369          0.03
     1.418348          4.95
     1.417761          4.96
     1.417109          4.85
     1.396922          0.11
     1.392781          0.03
     1.381033          7.52
     1.380675         61.67
     1.380650          7.46
     1.380538         61.67
     1.380285          7.51
     1.379623         61.71
     1.379484          0.13
     1.365342          2.81
     1.365318          5.54
     1.365018         33.17
     1.363840         65.65
     1.359935          0.19
     1.353213         17.42
     1.353090          0.04
     1.352854         17.34
     1.351610         17.24
     1.341869          0.00
     1.338888          0.03
     1.338582          0.19
     1.335037          0.11
     1.334945          0.02
     1.334760          0.74
     1.334743          0.01
     1.334338          0.67
     1.333176          0.72
     1.325998          0.01
     1.312033          0.06
     1.310468          9.01
     1.309250         17.66
     1.308593          0.03
     1.303505          0.02
     1.302555          0.25
     1.302497          0.11
     1.293435          2.42
     1.292585          0.08
     1.292424          2.48
     1.291819          2.38
     1.290266          0.10
     1.289163          0.04
     1.287023          0.02
     1.286599          0.02
     1.271156         12.77
     1.270519         12.90
     1.270103         12.75
     1.268233         27.38
     1.267890         54.70
     1.267631          0.68
     1.267402          0.68
     1.266353          0.67
     1.258259          0.01
     1.258240          0.08
     1.258155          0.03
     1.247039          3.33
     1.246946          0.01
     1.246933          6.64
     1.246679         14.10
     1.246604         22.19
     1.245762         22.03
     1.245712         14.21
     1.245207         22.10
     1.245203          0.01
     1.245182         14.28
     1.242878          0.17
     1.237368          0.08
     1.236441          0.02
     1.229090          0.04
     1.226786          0.06
     1.223976          1.97
     1.223833          3.58
     1.223584          0.19
     1.223426          7.14
     1.223355          3.83
     1.223213          0.09
     1.223200          0.17
     1.222328          0.19
     1.222270          0.02
     1.217398          0.01
     1.209925          0.00
     1.204809          0.01
     1.204672          0.04
     1.203310          0.00
     1.199332          0.73
     1.199022          0.71
     1.198616          0.71
     1.198452          0.15
     1.191535          1.72
     1.190795          3.38
     1.189040          0.43
     1.188993          0.41
     1.188981          0.01
     1.188761          0.01
     1.188695          0.08
     1.188694          0.43
     1.185523          0.03
     1.181317          0.63
     1.180104          0.00
     1.180017          1.24
     1.173830          0.09
     1.171600          9.30
     1.171476         18.66
     1.171129          0.00
     1.170924          0.06
     1.170180          0.00
     1.169258         10.17
     1.168919          0.00
     1.167711          0.00
     1.164057          0.02
     1.154756          0.15
     1.152514          0.02
     1.152294          4.04
     1.152189          0.03
     1.152175          3.97
     1.151663          3.99
     1.147500          0.00
     1.140346          4.45
     1.140087          0.15
     1.139100          2.29
     1.138476          0.06
     1.137833          0.08
     1.135945          0.01
     1.135151          0.06
     1.132013          6.46
     1.131900          0.96
     1.131786          0.14
     1.131203          0.13
     1.131190         12.61
     1.131128          0.93
     1.130779          0.13
     1.130741          0.90
     1.130195          0.13
     1.125104          9.49
     1.124990          9.43
     1.124238          9.51
     1.124132          0.00
     1.123147          0.03
     1.121984          0.08
     1.119350          0.06
     1.116798          0.01
     1.116489          5.91
     1.115951          5.80
     1.115092          5.77
     1.109352          0.00
     1.108499          3.33
     1.108282          0.02
     1.108274          3.31
     1.108105          0.00
     1.108095          3.34
     1.107917          9.17
     1.107864          9.24
     1.106748          9.00
     1.106454          0.21
     1.106383          0.21
     1.106292          0.22
     1.106005         14.62
     1.105692          0.04
     1.105639          0.04
     1.105534         14.55
     1.105524          0.01
     1.104681         14.55
     1.094534          0.16
     1.093884          0.02
     1.093022          0.00
     1.092988          0.00
     1.092015          1.19
     1.091072          2.34
     1.088021          0.01
     1.087921          0.01
     1.087578          0.04
     1.079853          0.10
     1.078915          0.11
     1.078337          0.09
     1.078218          0.00
     1.078120          0.03
     1.074588          0.29
     1.074287          0.27
     1.073713          0.27
     1.067280          1.34
     1.067189          0.01
     1.066996         18.45
     1.066872          1.29
     1.066633          1.32
     1.066479         18.23
     1.065748          0.14
     1.065745         18.01
     1.065732          0.16
     1.065364          0.01
     1.065301          0.00
     1.061833          4.07
     1.061830          8.07
     1.061525          3.29
     1.060761          0.02
     1.060647          3.33
     1.060236          3.26
     1.055844          0.01
     1.055329          0.00
     1.052555          1.56
     1.051654          1.56
     1.051297          0.11
     1.051260          1.50
     1.049246          0.00
     1.048714          0.02
     1.043221          0.06
     1.041898          0.03
     1.040250          0.01
     1.040195         10.81
     1.040011          0.05
     1.039848         10.89
     1.039124         10.74
     1.031425          0.07
     1.030260          0.02
     1.027801          0.01
     1.025355          0.03
     1.025081          0.01
     1.025017          0.01
     1.024933          0.01
     1.024070          0.02
     1.024013          0.09
     1.020456          6.00
     1.019548         11.55
     1.018801         11.13
     1.018670          0.43
     1.018366         22.26
     1.018358          0.06
     1.018220          0.05
     1.018179          0.06
     1.017935          0.42
     1.017565          0.45
     1.016996          0.01
     1.015940          0.08
     1.014199          0.05
     1.014010          0.10
     1.013761          0.00
     1.013180          0.04
     1.013170          0.04
     1.013126          0.03
     1.009268          0.01
     1.007700          1.27
     1.007667          0.01
     1.007542          1.27
     1.007379          0.02
     1.007295          1.25
##############################################################################
###                            Comments                                    ###
##############################################################################
###   Diffraction pattern calculated by Match!. 
###   I/Ic calculated by Match!. 
##############################################################################


