##############################################################################
###               Crystal structure data exported by Match!                ###
##############################################################################
###                           Data published by:                           ###
###                                                                        ###
###               COD (Crystallography Open Database)
##############################################################################
data_9016458
_citation_journal_full    'Physics and Chemistry of Minerals'
_citation_journal_volume  '39'
_citation_page_first  '399'
_citation_page_last   '412'
_citation_year  '2012'
_citation_title  'Crystal-structure properties and the molecular nature ofhydrostatically compressed realgarNote: P = 5.40 GPa'
loop_
_publ_author_name
  'Hejny C.'
  'Sagl R.'
  'Tobbens D. M.'
  'Miletich R.'
  'Wildner M.'
  'Nasdala L.'
  'Ullrich A.'
  'Balic-Zunic T'
_chemical_formula_sum  'As S'
_chemical_name_mineral  'Realgar'
_symmetry_space_group_name_H-M 'P 1 21/n 1'
_space_group_IT_number 14
_space_group_crystal_system 'monoclinic'
loop_
_symmetry_equiv_pos_as_xyz
   'x, y, z'
   '-x+0.5, y+0.5, -z+0.5'
   '-x, -y, -z'
   'x+0.5, -y+0.5, z+0.5'
_cell_length_a        8.71900
_cell_length_b       12.63400
_cell_length_c        6.14900
_cell_angle_alpha    90.0000
_cell_angle_beta    107.1000
_cell_angle_gamma    90.0000
loop_
_atom_site_label
_atom_site_fract_x
_atom_site_fract_y
_atom_site_fract_z
_atom_site_occupancy
_atom_site_B_iso_or_equiv
as      0.105   -0.031   0.755    1.00000    0.971
as      0.436   0.135   0.854    1.00000    1.026
as      0.330   0.128   0.193    1.00000    0.868
as      0.027   0.165   0.698    1.00000    0.986
s      0.343   -0.020   0.681    1.00000    1.058
s      0.211   -0.032   0.133    1.00000    1.026
s      0.242   0.232   0.620    1.00000    1.318
s      0.104   0.222   0.059    1.00000    0.939
_cell_measurement_wavelength    1.541874
_cell_measurement_radiation   'x-rays'
_exptl_crystal_density_diffrn    4.391000
loop_
_pd_peak_d_spacing
_pd_peak_intensity
     6.956502        115.71
     6.317000         48.37
     5.648446        521.55
     5.328811        397.56
     5.156553        295.96
     5.034156       1000.00
     4.302884         65.86
     4.250231          0.20
     4.210650         16.91
     4.166780         45.89
     4.028387          6.98
     3.957121        138.02
     3.812502        295.61
     3.758659         86.50
     3.526352         62.82
     3.478251         77.67
     3.423220         57.63
     3.378812        175.79
     3.376226          0.06
     3.158500         15.86
     2.991520         72.66
     2.982035         26.32
     2.961985        700.71
     2.953484        500.73
     2.938586        765.76
     2.925690         74.84
     2.899851          6.28
     2.862184        140.02
     2.856879        670.39
     2.824223          0.23
     2.786525        111.91
     2.782179        441.14
     2.760275        484.66
     2.756773          2.89
     2.756198        301.21
     2.715408        903.53
     2.713048         61.22
     2.664406        186.11
     2.603050        248.88
     2.578277         22.83
     2.542852        151.23
     2.535128        733.13
     2.517078        164.58
     2.496241        271.01
     2.480133          7.01
     2.478613        197.47
     2.447435          4.52
     2.418090        340.27
     2.409894        117.61
     2.364210        101.94
     2.361769         48.17
     2.359519        225.91
     2.345602         51.06
     2.321348         22.33
     2.318834        194.22
     2.306530        284.31
     2.267083         96.53
     2.244986        203.62
     2.231441        111.24
     2.200976        170.57
     2.179058         15.81
     2.178027         63.89
     2.171957         13.02
     2.160574         24.44
     2.151442         40.00
     2.143855          5.34
     2.136100          0.10
     2.133826         90.16
     2.125116         43.15
     2.118749          1.77
     2.105667        120.35
     2.105325          0.03
     2.095676          7.78
     2.086328        178.00
     2.085905         95.76
     2.083390         11.73
     2.056856        111.14
     2.055628         17.25
     2.045778        165.54
     2.041506        244.92
     2.019474        110.36
     2.014194         42.75
     1.999462        169.47
     1.996211         23.46
     1.990555        231.93
     1.982408          2.21
     1.982280         28.62
     1.978560         94.76
     1.974883         42.23
     1.973029         54.73
     1.950638          3.73
     1.946260          0.28
     1.935921         31.73
     1.934609          0.08
     1.932770         32.11
     1.920334         94.95
     1.915906          1.18
     1.911820         91.24
     1.906251         47.50
     1.897244         24.22
     1.892709         10.61
     1.886806          2.03
     1.883121          0.03
     1.882815        103.15
     1.879329         76.15
     1.871142         32.77
     1.869185          4.13
     1.867375          2.06
     1.863156         39.30
     1.862249         13.63
     1.841759         32.94
     1.840147         18.94
     1.818189         13.48
     1.806222          2.35
     1.804373          5.66
     1.793621         85.43
     1.793223         48.30
     1.791581          5.69
     1.785624          0.08
     1.776270          7.41
     1.775428         18.72
     1.763961         36.01
     1.763176          3.09
     1.757623          0.28
     1.743696         92.41
     1.740834          8.36
     1.739126         13.36
     1.736238        143.45
     1.734411        123.78
     1.727322         62.62
     1.725333          8.15
     1.725063        139.77
     1.724906        209.77
     1.719223          0.81
     1.718851         11.17
     1.717068         20.74
     1.711610        108.80
     1.708717         63.05
     1.699186          4.10
     1.695010        134.90
     1.689406         46.37
     1.688113         17.30
     1.687444          0.20
     1.682810         20.50
     1.680836        135.76
     1.678052         61.94
     1.664822         57.36
     1.662106          0.33
     1.661276         10.52
     1.658050        190.20
     1.656165          0.00
     1.652395          9.33
     1.649878         48.55
     1.648599        118.27
     1.645065         10.32
     1.639739          2.41
     1.635560         36.62
     1.626386         22.87
     1.622736         57.42
     1.620566          5.09
     1.617269         95.99
     1.611562         23.30
     1.611059         58.17
     1.607452         10.58
     1.589986        191.51
     1.588176         37.35
     1.583332        148.88
     1.579250         51.47
     1.575757         13.89
     1.574762         50.75
     1.567948         59.57
     1.566317          3.23
     1.559422        219.12
     1.557757         68.46
     1.555731          1.94
     1.551819        148.11
     1.551635         43.44
     1.549754         24.91
     1.548235         70.52
     1.547563          0.52
     1.547315          3.92
     1.542843         26.14
     1.537939          5.66
     1.534371         28.57
     1.526521         89.81
     1.525863         16.59
     1.525148          0.01
     1.523179          4.02
     1.520923          0.38
     1.520826         57.02
     1.514714          5.29
     1.513457         36.24
     1.512985         64.96
     1.509768          0.09
     1.506816          0.65
     1.503720         19.76
     1.496404          3.77
     1.496212          7.07
     1.495760         16.67
     1.495538         43.72
     1.493181          0.35
     1.492426         24.53
     1.491017          3.31
     1.483075          4.70
     1.482517          5.43
     1.482121         84.68
     1.480992          0.32
     1.480949          9.31
     1.480361         10.64
     1.476742          7.72
     1.474067         11.09
     1.472500          0.66
     1.469293          0.62
     1.468856          0.03
     1.468065         42.44
     1.467299         38.75
     1.465695          3.19
     1.462845         75.47
     1.462383          1.50
     1.459456          9.54
     1.456094         17.46
     1.452814         12.81
     1.452441          5.93
     1.452385          1.98
     1.449925         13.66
     1.442869         46.71
     1.441664          5.54
     1.441058          1.86
     1.435147          5.33
     1.434481          0.01
     1.434295          1.51
     1.431092         12.10
     1.428439          5.39
     1.427934         12.48
     1.419396         34.50
     1.418736         13.91
     1.416744          3.71
     1.416151          4.46
     1.413733         57.50
     1.412112         90.82
     1.412029         49.18
     1.409310          3.71
     1.407919          0.64
     1.407044         11.11
     1.406706         11.79
     1.404214          3.46
     1.403550         25.90
     1.403373         36.68
     1.398199         64.82
     1.397082         11.51
     1.393262         18.98
     1.391300          0.60
     1.391089          9.08
     1.389032         15.52
     1.388927          0.43
     1.387284          7.84
     1.384276         29.08
     1.382403          1.43
     1.382133          0.60
     1.380609          0.01
     1.380137         43.53
     1.378386          3.84
     1.378099          5.61
     1.375668         39.50
     1.373831          3.24
     1.372893          0.30
     1.371453         31.20
     1.371139         70.21
     1.369856          1.02
     1.365370          6.21
     1.365237          2.43
     1.364153          0.16
     1.362336          4.92
     1.359981         31.06
     1.357704         81.74
     1.357091          0.35
     1.356524          0.14
     1.353429         24.56
     1.352741         23.10
     1.352312          0.72
     1.349673         59.77
     1.349374         66.92
     1.347539         17.36
     1.344620         10.60
     1.342996          1.37
     1.342796          1.72
     1.342101         18.75
     1.339759          0.61
     1.338850          2.50
     1.332955         12.97
     1.332203          5.44
     1.330311         63.41
     1.327398         22.12
     1.325617          2.46
     1.324538         14.50
     1.321753          2.66
     1.319551          5.95
     1.319040          0.40
     1.318165          4.13
     1.311649         10.31
     1.311505         16.79
     1.310775          2.88
     1.306861          1.93
     1.306090          4.55
     1.304253         15.57
     1.302915          5.01
     1.302641          6.86
     1.301525          2.70
     1.295838          4.36
     1.294172          0.30
     1.292660          4.79
     1.292209         15.37
     1.289138          3.51
     1.288719         36.39
     1.285280          2.02
     1.285021          1.91
     1.282353          9.56
     1.277996         18.69
     1.276555         52.60
     1.275828          1.60
     1.274390          3.45
     1.273220          1.09
     1.272093          0.03
     1.272030          1.30
     1.271426         19.18
     1.270834          6.27
     1.270166         31.88
     1.269065          9.90
     1.267564          6.06
     1.266803          0.33
     1.266670          5.98
     1.265496          0.32
     1.264274         11.83
     1.264019          3.78
     1.263400         19.22
     1.259897          0.78
     1.258539          7.12
     1.257982          2.36
     1.257057         46.40
     1.254044         11.84
     1.252886          0.79
     1.250548          6.31
     1.250103          0.04
     1.249127          1.74
     1.248736          0.65
     1.248120          0.05
     1.245701          0.07
     1.243494         32.48
     1.243152         10.31
     1.240067          0.96
     1.239906          4.72
     1.239307         43.12
     1.238216          7.84
     1.236696          3.80
     1.235755          0.80
     1.235486          0.74
     1.235183         40.16
     1.233977         11.17
     1.232935          7.12
     1.232678         30.59
     1.231352          9.26
     1.230830         13.12
     1.229503         14.52
     1.229352          6.23
     1.228408          7.77
     1.228088          6.52
     1.225384          6.92
     1.224472          1.47
     1.223920         46.09
     1.223717          6.60
     1.218739          0.38
     1.218732          0.82
     1.217827         19.43
     1.217607          5.10
     1.217165          0.01
     1.216690          7.77
     1.216486         12.49
     1.214342          7.26
     1.214173         11.83
     1.213101          1.03
     1.211951          2.49
     1.211029          1.27
     1.210661          0.12
     1.209972          6.85
     1.209752          1.54
     1.209045          4.47
     1.208771          5.91
     1.207046         37.15
     1.204947          1.66
     1.204706          7.48
     1.202625         12.44
     1.200888          4.95
     1.198577          0.01
     1.197642          0.57
     1.196665          4.46
     1.195500         50.34
     1.194530         26.95
     1.193502         34.33
     1.192508          1.29
     1.189425         11.66
     1.188185         34.46
     1.187073          1.18
     1.185258          0.64
     1.185166         17.04
     1.183476          8.30
     1.182105          5.51
     1.180885          7.68
     1.180410          7.81
     1.179826         10.58
     1.179760          4.67
     1.179518          8.72
     1.178981          0.15
     1.178835          0.49
     1.178318          4.79
     1.178278         17.17
     1.175451         10.33
     1.172801          9.22
     1.171302          5.92
     1.170696          3.87
     1.170529          8.72
     1.170380          0.52
     1.169913         38.10
     1.169020          2.68
     1.168265          0.12
     1.166802          3.70
     1.166209          1.62
     1.165180          0.07
     1.164794          0.12
     1.164169          2.95
     1.163238          6.67
     1.163200          2.90
     1.162729         13.79
     1.160674          9.65
     1.160003          0.02
     1.159417          4.53
     1.157483          2.77
     1.156695          2.22
     1.156383         17.03
     1.155599         16.99
     1.155457         12.50
     1.155293          4.27
     1.154853         17.21
     1.154160          0.06
     1.153792          0.17
     1.153265          0.02
     1.152797          8.68
     1.152011          0.51
     1.151958          3.90
     1.150333          0.86
     1.150147         16.87
     1.150042          1.02
     1.149599          4.75
     1.148897          0.61
     1.146372          9.24
     1.145918          1.23
     1.145613         18.12
     1.145607         66.17
     1.141073          5.93
     1.139459          0.58
     1.139342          2.00
     1.139306         22.69
     1.137790          5.67
     1.137029         12.09
     1.137024         32.86
     1.135199          0.16
     1.133541         19.38
     1.133456          4.05
     1.132162          0.01
     1.131760          2.91
     1.130638          0.06
     1.129689          0.40
     1.129006          0.00
     1.127222         12.81
     1.126271         14.23
     1.125513          4.94
     1.125409         12.35
     1.125200          7.62
     1.124266          8.67
     1.123911          5.80
     1.122761          3.47
     1.122493          5.87
     1.120084          5.97
     1.119287          4.10
     1.118139          7.57
     1.117583          0.33
     1.115721          2.39
     1.114921          3.50
     1.114419         18.02
     1.114002          0.00
     1.113236          4.72
     1.113114         14.09
     1.112160          0.35
     1.112078         21.71
     1.112047          2.30
     1.111186          0.20
     1.108775         13.99
     1.108234          0.12
     1.108201          3.70
     1.107814         21.63
     1.107251         12.04
##############################################################################
###                            Comments                                    ###
##############################################################################
###   Baia Sprie mine, Romania
###   Diffraction pattern calculated by Match!. 
###   I/Ic calculated by Match!. 
##############################################################################


