##############################################################################
###               Crystal structure data exported by Match!                ###
##############################################################################
###                           Data published by:                           ###
###                                                                        ###
###               COD (Crystallography Open Database)
##############################################################################
data_9008211
_citation_journal_full    'Zeitschrift fur Kristallographie'
_citation_journal_volume  '136'
_citation_page_first  '48'
_citation_page_last   '65'
_citation_year  '1972'
_citation_title  'Refinement of the crystal structures of realgar, AsS and orpiment, As2S3Locality: Lengenbach quarry, Binnatal, Switzerland'
loop_
_publ_author_name
  'Mullen D. J. E.'
  'Nowacki W.'
_chemical_formula_sum  'As2 S3'
_chemical_name_mineral  'Orpiment'
_symmetry_space_group_name_H-M 'P 1 21/n 1'
_space_group_IT_number 14
_space_group_crystal_system 'monoclinic'
loop_
_symmetry_equiv_pos_as_xyz
   'x, y, z'
   '-x+0.5, y+0.5, -z+0.5'
   '-x, -y, -z'
   'x+0.5, -y+0.5, z+0.5'
_cell_length_a       11.47500
_cell_length_b        9.57700
_cell_length_c        4.25600
_cell_angle_alpha    90.0000
_cell_angle_beta     90.6800
_cell_angle_gamma    90.0000
loop_
_atom_site_label
_atom_site_fract_x
_atom_site_fract_y
_atom_site_fract_z
_atom_site_occupancy
_atom_site_B_iso_or_equiv
as      0.265   0.192   0.863    1.00000    2.100
as      0.487   0.321   0.361    1.00000    2.097
s      0.402   0.121   0.508    1.00000    2.056
s      0.347   0.397   0.010    1.00000    2.258
s      0.122   0.294   0.559    1.00000    2.116
_cell_measurement_wavelength    1.541874
_cell_measurement_radiation   'x-rays'
_exptl_crystal_density_diffrn    3.494000
loop_
_pd_peak_d_spacing
_pd_peak_intensity
     7.352471        123.39
     5.737096          0.10
     4.921582        158.15
     4.788500       1000.00
     4.419116         72.63
     4.005627         41.52
     3.974747        333.04
     3.889020          1.86
     3.695415        434.06
     3.676236          1.68
     3.671126         67.44
     3.551949         42.14
     3.235454         16.70
     3.203021          3.90
     3.180995        298.64
     3.075520         61.92
     3.072403         50.99
     3.058402        140.39
     2.988460        104.35
     2.868548         56.96
     2.861629        441.04
     2.828056         30.15
     2.792508        152.73
     2.789557        130.11
     2.771575         98.26
     2.747930          0.44
     2.741845         38.38
     2.712273        635.76
     2.553706        151.48
     2.496489          3.84
     2.488960          8.03
     2.460791        126.10
     2.456419        171.55
     2.450824        207.01
     2.435085          0.67
     2.394250         26.10
     2.343769         66.30
     2.339216         15.90
     2.326871         13.14
     2.320557         75.29
     2.296636         69.61
     2.231664         36.33
     2.209558          8.99
     2.139753         88.96
     2.133687          0.25
     2.130835          0.76
     2.127850         22.59
     2.120955         82.79
     2.116865         20.07
     2.086682        125.71
     2.077197        147.91
     2.069463         45.57
     2.055115         19.75
     2.050909          4.31
     2.048137         20.84
     2.039835          2.48
     2.029973          0.75
     2.029415        129.39
     2.009943          5.97
     2.002814          7.76
     1.987374          8.66
     1.985852         15.26
     1.967088          0.25
     1.964675          0.87
     1.960404          1.94
     1.957344          0.76
     1.945917          0.63
     1.944510          0.52
     1.920609         14.47
     1.914162         70.04
     1.913759         59.14
     1.912365          0.00
     1.900670         65.99
     1.889258          9.25
     1.875343         49.65
     1.868968          1.82
     1.863348         44.78
     1.853301         18.58
     1.847708         12.03
     1.838118          3.45
     1.836293          1.92
     1.835563          8.31
     1.834303          0.97
     1.827330          1.90
     1.816819         10.20
     1.816563         18.24
     1.775974          1.43
     1.770574         11.88
     1.752473         67.98
     1.747264          8.28
     1.746643        170.71
     1.741001         47.47
     1.728004          8.27
     1.725812         10.62
     1.725501          4.23
     1.723526          2.14
     1.718783         24.91
     1.712977         14.27
     1.712642         80.95
     1.708785          1.81
     1.700890         22.10
     1.699371         22.94
     1.696564         11.71
     1.692136         91.01
     1.691753        124.19
     1.687148         35.64
     1.682793         58.68
     1.673233        118.77
     1.673194          1.16
     1.668658          6.65
     1.656726          7.55
     1.645441         25.46
     1.640527         25.39
     1.632600         36.63
     1.617727          4.57
     1.615676         20.87
     1.612842         17.81
     1.601511          2.34
     1.600743         28.96
     1.596167         16.62
     1.592931          1.45
     1.591743          0.26
     1.590498          7.70
     1.585894         22.17
     1.580943          5.42
     1.577339         17.91
     1.573537         34.26
     1.550825         38.03
     1.548965          1.54
     1.548355          2.17
     1.539411          4.58
     1.537760          3.17
     1.536202          1.05
     1.535988         10.92
     1.535753         19.44
     1.531210          3.00
     1.529201          0.41
     1.525527          4.46
     1.523575          9.44
     1.516380         17.21
     1.513371          9.74
     1.504654         31.27
     1.500070         11.88
     1.495087          0.22
     1.494505         11.08
     1.494230          1.16
     1.491544          9.17
     1.488631          0.84
     1.482779          0.97
     1.481197         19.44
     1.475671          0.64
     1.473220         18.50
     1.473039         38.42
     1.470494          1.00
     1.463982         16.90
     1.462384         30.25
     1.458177         32.23
     1.451857          1.20
     1.447713          7.17
     1.444772          0.21
     1.434274         33.38
     1.430814          3.91
     1.423594         11.74
     1.418455          0.05
     1.415108          0.35
     1.414135         26.15
     1.414028          4.96
     1.413956          9.77
     1.411394          8.02
     1.409887         16.42
     1.408573          0.09
     1.405818          0.08
     1.405783         10.42
     1.403256         20.86
     1.398863          0.20
     1.396254          1.65
     1.395181          4.76
     1.394853          0.43
     1.394778         36.27
     1.393981         13.75
     1.393136          1.05
     1.390913         28.12
     1.390047          0.39
     1.386611          3.12
     1.385787          3.99
     1.384264          0.03
     1.383936          0.34
     1.379135          5.32
     1.375004         11.15
     1.373965         23.26
     1.370923          1.50
     1.366783          0.51
     1.360138          5.68
     1.359397          1.26
     1.358520          0.07
     1.356136          3.60
     1.353318          0.48
     1.352556         10.36
     1.352482         15.26
     1.350438          1.76
     1.348889          0.02
     1.340962          1.34
     1.337650         16.07
     1.335209          0.79
     1.330824          2.51
     1.330724          3.97
     1.327678         13.38
     1.326847         11.90
     1.324916          5.70
     1.323151         11.16
     1.322419          9.38
     1.320086         10.61
     1.312688          0.27
     1.312416          1.09
     1.311878          5.33
     1.310366          2.82
     1.308294          0.38
     1.305667          4.13
     1.303186          7.14
     1.302490          7.49
     1.301829          1.36
     1.296340         34.17
     1.294705         10.11
     1.294086          5.73
     1.293652          2.05
     1.292874          1.06
     1.292819          2.38
     1.292679          0.66
     1.289706          0.91
     1.288206          0.70
     1.286589          6.51
     1.286562          3.56
     1.286146          2.08
     1.285391          0.68
     1.279585          0.77
     1.279246          4.10
     1.276939          7.72
     1.276853          2.97
     1.271182          7.15
     1.271165          0.01
     1.270014          0.35
     1.269172          1.68
     1.268028          6.75
     1.267421          1.16
     1.266398          0.46
     1.263762          1.92
     1.261524          3.25
     1.260036          5.79
     1.254738          1.09
     1.254714          0.43
     1.254355          9.95
     1.249965          2.51
     1.248244          0.85
     1.246750         10.11
     1.246638         14.08
     1.245386          2.27
     1.244480          0.73
     1.234880          0.03
     1.234434          5.09
     1.234326          0.91
     1.231992          4.14
     1.231805          2.68
     1.231593         16.57
     1.230396          0.03
     1.228209          0.12
     1.225412          0.05
     1.225289          0.19
     1.223709          1.60
     1.223606          4.12
     1.220436          3.06
     1.217543          0.66
     1.217319          0.35
     1.215382          0.38
     1.214896          0.27
     1.214055          2.69
     1.213743          0.02
     1.213096          2.47
     1.212290          0.27
     1.208809         10.44
     1.208562          4.88
     1.207603          0.04
     1.205449          0.38
     1.203479          2.14
     1.200285          1.21
     1.198173          0.78
     1.197125          8.11
     1.196965         15.02
     1.196214          0.24
     1.195917          0.03
     1.192363          2.96
     1.191253          0.47
     1.190968          1.64
     1.190662          0.34
     1.187585          0.55
     1.187044          1.91
     1.186700          8.12
     1.186150         11.19
     1.185210          4.75
     1.184342          0.00
     1.183983          1.47
     1.182832          0.30
     1.179955          2.63
     1.179793          0.48
     1.178789          8.79
     1.176534         11.23
     1.175947          0.04
     1.175192          0.32
     1.175147          0.19
     1.173913          7.57
     1.171884          0.11
     1.169608          0.03
     1.166133          0.01
     1.164267          0.03
     1.163435          0.02
     1.160279          0.04
     1.159257          0.02
     1.152399          0.38
     1.150793         18.44
     1.148318          0.20
     1.148074          0.00
     1.147419          0.07
     1.146997          2.01
     1.146566         24.95
     1.146297          2.12
     1.146264          4.27
     1.145779          2.70
     1.144320          3.33
     1.143922          1.56
     1.143561          0.05
     1.142470          0.71
     1.139970          2.18
     1.139272          5.04
     1.137740          0.01
     1.137611          0.01
     1.137429          1.31
     1.136444          5.63
     1.135451          0.02
     1.134524          6.12
     1.133981          0.02
     1.133322          1.21
     1.130992          0.63
     1.130533          0.30
     1.129717          4.94
     1.129131          7.72
     1.127175          9.99
     1.126924          2.36
     1.125315          0.01
     1.125069          0.11
     1.123496          0.94
     1.120155          1.30
     1.119911          0.62
     1.119160          0.42
     1.118913          7.34
     1.116078          0.40
     1.115832          0.07
     1.114393          0.18
     1.112707         10.01
     1.112408          0.01
     1.111105          7.30
     1.109144          0.52
     1.106683         14.04
     1.105808         11.07
     1.104779         18.69
     1.104382         13.24
     1.103949          0.52
     1.103773          1.56
     1.102478          0.02
     1.102423          0.00
     1.102100          0.29
     1.100046          0.37
     1.097294          0.81
     1.095341          1.26
     1.092229          1.44
     1.090751          5.16
     1.089636          0.28
     1.085118          1.58
     1.082417          1.28
     1.082123          2.70
     1.081004          1.01
     1.079788          0.52
     1.079077          1.49
     1.079014          1.33
     1.078485          0.12
     1.078342          1.12
     1.076304          2.12
     1.074704          2.00
     1.073001          1.66
     1.072230         26.28
     1.071523          0.51
     1.070627         22.32
     1.070525          0.03
     1.070428         12.19
     1.069877          0.20
     1.068147          0.01
     1.067674          0.14
     1.066844          5.00
     1.066414         17.54
     1.065690         12.57
     1.065417          0.71
     1.063925          2.32
     1.062866         18.80
     1.061387          3.50
     1.061307          0.02
     1.060918          2.98
     1.060478          0.19
     1.060332          0.11
     1.059864          1.53
     1.059564          4.19
     1.058432          3.64
     1.057420          4.88
     1.056692          3.59
     1.055931         17.80
     1.054976          0.34
     1.054095          0.81
     1.052621          0.05
     1.051825          0.73
     1.050353          0.02
     1.049422          5.40
     1.048322          0.04
     1.046266          0.02
     1.044330          0.86
     1.043871          0.02
     1.043849          5.53
     1.043341          1.92
     1.042098          0.13
     1.041024          0.01
     1.040913          8.91
     1.039600          2.08
     1.039486          1.34
     1.038598          7.15
     1.038509          0.10
     1.037725          0.04
     1.036984          2.57
     1.036976          0.20
     1.035447          2.02
     1.034732          0.25
     1.033584          2.31
     1.033295          1.16
     1.032675          0.32
     1.032329          4.05
     1.032164          0.23
     1.031351          0.29
     1.031171          0.98
     1.029795          0.62
     1.028517          4.78
     1.028440          5.08
     1.027912          0.10
     1.027558          0.77
     1.027387          0.03
     1.026060          0.37
     1.025455          1.39
     1.025173          2.63
     1.024844          0.25
     1.024134          2.07
     1.024069          0.71
     1.024056          2.45
     1.022288          2.70
     1.022202          0.52
     1.021562          0.06
     1.019918          0.08
     1.019467          8.11
     1.019207          1.23
     1.017953         16.53
     1.017085          0.46
     1.016522          0.46
     1.016113          0.88
     1.015911         11.10
     1.015502          0.52
     1.014986          5.83
     1.014707          0.06
     1.014423          3.28
     1.011470          0.19
     1.010804         12.58
     1.010350          1.19
     1.010243          0.90
     1.009346          0.39
     1.009334          1.15
     1.008977          1.18
     1.008053          1.40
     1.007918          1.07
     1.006453          3.02
     1.006400          0.67
##############################################################################
###                            Comments                                    ###
##############################################################################
###   Diffraction pattern calculated by Match!. 
###   I/Ic calculated by Match!. 
##############################################################################


