##############################################################################
###               Crystal structure data exported by Match!                ###
##############################################################################
###                           Data published by:                           ###
###                                                                        ###
###               COD (Crystallography Open Database)
##############################################################################
data_9013445
_citation_journal_full    'Journal of Solid State Chemistry'
_citation_journal_volume  '23'
_citation_page_first  '327'
_citation_page_last   '339'
_citation_year  '1978'
_citation_title  'Oxydes de plomb. IV. Evolution structurale de l'oxyde Pb3O4 entre 240 et 5 K et mecanisme de la transition Locality: synthetic Sample: T = 140 K'
loop_
_publ_author_name
  'Gavarri J. R.'
  'Weigel D.'
  'Hewat A. W.'
_chemical_formula_sum  'O4 Pb3'
_chemical_name_mineral  'Minium'
_symmetry_space_group_name_H-M 'P b a m'
_space_group_IT_number 55
_space_group_crystal_system 'orthorhombic'
loop_
_symmetry_equiv_pos_as_xyz
   'x, y, z'
   '-x, -y, z'
   'x+0.5, -y+0.5, -z'
   '-x+0.5, y+0.5, -z'
   '-x, -y, -z'
   'x, y, -z'
   '-x+0.5, y+0.5, z'
   'x+0.5, -y+0.5, z'
_cell_length_a        8.94960
_cell_length_b        8.66380
_cell_length_c        6.56160
_cell_angle_alpha    90.0000
_cell_angle_beta     90.0000
_cell_angle_gamma    90.0000
loop_
_atom_site_label
_atom_site_fract_x
_atom_site_fract_y
_atom_site_fract_z
_atom_site_occupancy
_atom_site_B_iso_or_equiv
pb      0.000   0.500   0.249    1.00000    1.000
pb      0.148   0.158   0.000    1.00000    1.000
pb      0.167   0.861   0.500    1.00000    1.000
o      0.672   0.172   0.251    1.00000    1.000
o      0.090   0.637   0.000    1.00000    1.000
o      0.133   0.597   0.500    1.00000    1.000
_cell_measurement_wavelength    1.541874
_cell_measurement_radiation   'x-rays'
_cell_measurement_temperature    140.000000
_exptl_crystal_density_diffrn    8.951000
loop_
_pd_peak_d_spacing
_pd_peak_intensity
     6.561600          0.00
     6.224818        216.62
     4.515979          0.01
     4.474800          4.16
     4.331900         21.96
     3.975808          7.52
     3.899153          5.61
     3.696945         17.76
     3.615129         17.09
     3.400314        888.15
     3.351986       1000.00
     3.280800         95.56
     3.112409        259.08
     2.902359        699.87
     2.820670        518.38
     2.812091          0.19
     2.748384        415.49
     2.645857        296.63
     2.615374        222.45
     2.591380          1.15
     2.534993          2.39
     2.530485          1.36
     2.510376          1.88
     2.456952         17.15
     2.426482         13.23
     2.300936         17.33
     2.275853         54.45
     2.257990         97.74
     2.237400          8.91
     2.187200          0.00
     2.166328          0.10
     2.165950         19.20
     2.138854          3.34
     2.117674          5.01
     2.106818          0.08
     2.105175          1.06
     2.074939         20.08
     2.063526          0.02
     2.057114        138.74
     2.056790          3.04
     2.004535         80.93
     1.987904         92.82
     1.978379          0.36
     1.966611         14.59
     1.965029          2.48
     1.952445          3.08
     1.950880         11.04
     1.949576        117.69
     1.916357        169.96
     1.907578        195.01
     1.902510          6.06
     1.868831          6.74
     1.848472        203.63
     1.807784          5.25
     1.807565        236.94
     1.789521          0.02
     1.771788          8.75
     1.768697          3.43
     1.753649        500.99
     1.752902         13.79
     1.752701          1.92
     1.728445          0.53
     1.711406          0.62
     1.707743         17.08
     1.701168         26.58
     1.700157         20.63
     1.693513          6.00
     1.693332          4.60
     1.675993          7.55
     1.654266          0.00
     1.646725          3.89
     1.640400        124.64
     1.633663          5.46
     1.624612         17.57
     1.615846          0.49
     1.604073        124.66
     1.586245          8.42
     1.568973        113.62
     1.564030          2.01
     1.556868          3.74
     1.556205         89.08
     1.546063         73.04
     1.545925          2.04
     1.540173          0.51
     1.539152         50.80
     1.539016          1.03
     1.534091          2.46
     1.521399         32.69
     1.516753         30.30
     1.516398          0.79
     1.514201          0.29
     1.512038          0.60
     1.510218         40.09
     1.505326          0.18
     1.498345         12.54
     1.491600         67.19
     1.482082          6.29
     1.477115          0.92
     1.471084          2.16
     1.469974          3.41
     1.460745          8.24
     1.455346          2.91
     1.454493          1.43
     1.451180         45.59
     1.449570          0.00
     1.443967         47.48
     1.434419          9.09
     1.425531          2.32
     1.418034        116.15
     1.410335          2.93
     1.410223          3.60
     1.408579         98.16
     1.406046          0.29
     1.393035         26.67
     1.380216          6.13
     1.379754          1.17
     1.378844          0.38
     1.375293          7.59
     1.374192          2.25
     1.369963          0.29
     1.367827          2.58
     1.367732          2.03
     1.364272          3.96
     1.362934         23.03
     1.358987          3.09
     1.357852          4.41
     1.350226         25.66
     1.345012          0.00
     1.342817          2.03
     1.341476          5.78
     1.341046         42.89
     1.325269          0.02
     1.322928          2.38
     1.321623          1.04
     1.319387         60.96
     1.312320          0.00
     1.307770          0.14
     1.307687          5.82
     1.307444          4.16
     1.299718          0.30
     1.299647         56.90
     1.299038          0.48
     1.295690         38.75
     1.293947          0.61
     1.286831          8.49
     1.284094          0.00
     1.274947          0.41
     1.271857          4.09
     1.268001          0.11
     1.267496         37.85
     1.265242         36.79
     1.264817          0.27
     1.264175          1.79
     1.259283          0.58
     1.255953          0.48
     1.255188         48.41
     1.248960          3.60
     1.246188         36.08
     1.244964         13.68
     1.243765         42.01
     1.241954          1.22
     1.236110          4.28
     1.232315          0.78
     1.228802          0.03
     1.228476          1.72
     1.226223          4.88
     1.226017          0.04
     1.223142          0.39
     1.220035          4.94
     1.213241          0.02
     1.209226          0.03
     1.208351          0.47
     1.207496          3.50
     1.205356         16.43
     1.205160          0.10
     1.205043          1.87
     1.202739          1.68
     1.197737          7.00
     1.197673          0.95
     1.194266         15.11
     1.193019          5.04
     1.192897          5.48
     1.189847          0.09
     1.185288          0.27
     1.184245          0.28
     1.180837         14.13
     1.180153         48.17
     1.173659          2.23
     1.169073         38.52
     1.166961         15.01
     1.164809          0.00
     1.163977          8.90
     1.163590          0.01
     1.161019         25.36
     1.157549          1.49
     1.154316          4.94
     1.151159          0.26
     1.150948          4.10
     1.150468         73.01
     1.148617          4.75
     1.148448         48.68
     1.143201         46.36
     1.137926         48.22
     1.133438          0.28
     1.131972          0.54
     1.130449          2.14
     1.128995         54.44
     1.126235          0.81
     1.123854          0.92
     1.122432         15.87
     1.122380          0.41
     1.121090          5.78
     1.118700          2.20
     1.117329          0.25
     1.115491         21.41
     1.114037          4.34
     1.113656          9.82
     1.109489          0.21
     1.109110          0.03
     1.107724         12.39
     1.106309          8.52
     1.103585         45.11
     1.102787          3.90
     1.101245          2.22
     1.101011          0.26
     1.095198          0.87
     1.094922          0.85
     1.094740          2.51
     1.093961         24.16
     1.093600          2.74
     1.088657          0.85
     1.085831          2.13
     1.083869         34.05
     1.083164          5.18
     1.083022          1.70
     1.082975          7.36
     1.081966          0.30
     1.079540          6.29
     1.077104         27.37
     1.076007          1.84
     1.075132          0.13
     1.071091          2.21
     1.069597         11.24
     1.069460          0.04
     1.069427          2.32
     1.068782          4.01
     1.068701          0.67
     1.068565          0.31
     1.068519          3.25
     1.063204          1.85
     1.062335         14.85
     1.060984         20.16
     1.060948          3.60
     1.060333         11.47
     1.058837          4.95
     1.055908          1.06
     1.054438          0.00
     1.053904          3.01
     1.053409          1.88
     1.052969          0.00
     1.052588          2.41
     1.051500          0.30
     1.051017          0.04
     1.050533          1.23
     1.050490          0.79
     1.047263          1.62
     1.043801          0.02
     1.043168          0.37
     1.039300          1.69
     1.039075          0.75
     1.037470         25.00
     1.031763          6.52
     1.031032          2.83
     1.030880          0.03
     1.030230          3.73
     1.028781          4.00
     1.028557         11.14
     1.028436          1.42
     1.028395          0.18
     1.028104         27.53
     1.024740          0.42
     1.021672          0.70
     1.019646          0.25
     1.018715          0.25
     1.018681         26.50
     1.018012          1.33
     1.017973          0.54
     1.016364          1.07
     1.016114          0.01
     1.013154          0.67
##############################################################################
###                            Comments                                    ###
##############################################################################
###   Diffraction pattern calculated by Match!. 
###   I/Ic calculated by Match!. 
##############################################################################


