##############################################################################
###               Crystal structure data exported by Match!                ###
##############################################################################
###                           Data published by:                           ###
###                                                                        ###
###               COD (Crystallography Open Database)
##############################################################################
data_9006171
_citation_journal_full    'Physics and Chemistry of Minerals'
_citation_journal_volume  '19'
_citation_page_first  '571'
_citation_page_last   '577'
_citation_year  '1993'
_citation_title  '57Fe-Moessbauer spectra, electronic and crystal structure of members of theCuS2-FeS2 solid solution series'
loop_
_publ_author_name
  'Schmid-Beurmann P'
  'Lottermoser W.'
_chemical_formula_sum  'Cu0.6 Fe0.4 S2'
_chemical_name_mineral  'Pyrite'
_symmetry_space_group_name_H-M 'P a -3'
_space_group_IT_number 205
_space_group_crystal_system 'cubic'
loop_
_symmetry_equiv_pos_as_xyz
   'x, y, z'
   'z, x, y'
   'y, z, x'
   '-y+0.5, -z, x+0.5'
   'z+0.5, -x+0.5, -y'
   '-y, z+0.5, -x+0.5'
   '-z+0.5, -x, y+0.5'
   '-z, x+0.5, -y+0.5'
   'y+0.5, -z+0.5, -x'
   '-x+0.5, -y, z+0.5'
   'x+0.5, -y+0.5, -z'
   '-x, y+0.5, -z+0.5'
   '-x, -y, -z'
   '-z, -x, -y'
   '-y, -z, -x'
   'y+0.5, z, -x+0.5'
   '-z+0.5, x+0.5, y'
   'y, -z+0.5, x+0.5'
   'z+0.5, x, -y+0.5'
   'z, -x+0.5, y+0.5'
   '-y+0.5, z+0.5, x'
   'x+0.5, y, -z+0.5'
   '-x+0.5, y+0.5, z'
   'x, -y+0.5, z+0.5'
_cell_length_a        5.56240
_cell_length_b        5.56240
_cell_length_c        5.56240
_cell_angle_alpha    90.0000
_cell_angle_beta     90.0000
_cell_angle_gamma    90.0000
loop_
_atom_site_label
_atom_site_fract_x
_atom_site_fract_y
_atom_site_fract_z
_atom_site_occupancy
_atom_site_B_iso_or_equiv
fe      0.000   0.000   0.000    0.40000    0.779
cu      0.000   0.000   0.000    0.60000    0.779
s      0.391   0.391   0.391    1.00000    0.817
_cell_measurement_wavelength    1.541874
_cell_measurement_radiation   'x-rays'
_exptl_crystal_density_diffrn    4.809000
loop_
_pd_peak_d_spacing
_pd_peak_intensity
     3.211453        372.39
     2.781200       1000.00
     2.487581        388.38
     2.270840        339.59
     1.966605        500.74
     1.854133         10.41
     1.677127        843.24
     1.605727        148.75
     1.542732        132.66
     1.486614        164.24
     1.390600          0.48
     1.349080         12.34
     1.311070          6.75
     1.276102        117.63
     1.243790        103.53
     1.213815         48.60
     1.185908         22.46
     1.135420        100.61
     1.112480          6.27
     1.090876          8.46
     1.070484        264.69
     1.032912         62.69
     1.015551         35.76
##############################################################################
###                            Comments                                    ###
##############################################################################
###   Diffraction pattern calculated by Match!. 
###   I/Ic calculated by Match!. 
##############################################################################


