##############################################################################
###               Crystal structure data exported by Match!                ###
##############################################################################
###                           Data published by:                           ###
###                                                                        ###
###               COD (Crystallography Open Database)
##############################################################################
data_2300246
_citation_journal_full    'Journal of Applied Crystallography'
_citation_journal_volume  '42(3)'
_citation_page_first  '535'
_citation_page_last   '537'
_citation_year  '2009'
_citation_title  'The pseudo-single-crystal method: a third approach to crystalstructure determination'
loop_
_publ_author_name
  'Kimura Tsunehisa'
  'Chang Chengkang'
  'Kimura Fumiko'
  'Maeyama Masataka'
_chemical_formula_sum  'Co Li O4 P'
_chemical_name_common  'Lithium cobalt phosphate'
_symmetry_space_group_name_H-M 'P n m a'
_space_group_IT_number 62
_space_group_crystal_system 'orthorhombic'
loop_
_symmetry_equiv_pos_as_xyz
   'x, y, z'
   '-x+0.5, -y, z+0.5'
   'x+0.5, -y+0.5, -z+0.5'
   '-x, y+0.5, -z'
   '-x, -y, -z'
   'x+0.5, y, -z+0.5'
   '-x+0.5, y+0.5, z+0.5'
   'x, -y+0.5, z'
_cell_length_a       10.20200
_cell_length_b        5.91800
_cell_length_c        4.70900
_cell_angle_alpha    90.0000
_cell_angle_beta     90.0000
_cell_angle_gamma    90.0000
_cell_formula_units_Z 4
loop_
_atom_site_label
_atom_site_fract_x
_atom_site_fract_y
_atom_site_fract_z
_atom_site_occupancy
_atom_site_B_iso_or_equiv
co      0.722   0.250   0.521    1.00000    2.637
p      0.594   0.750   0.582    1.00000    2.637
o      0.665   0.543   0.720    1.00000    2.874
o      0.452   0.750   0.704    1.00000    2.810
o      0.598   0.750   0.257    1.00000    2.652
li      0.500   0.500   1.000    1.00000    2.526
_cell_measurement_wavelength    1.541874
_cell_measurement_radiation   'x-rays'
_cell_measurement_temperature    243.100000
_exptl_crystal_density_diffrn    3.758000
_exptl_crystal_colour            'violet'
loop_
_pd_peak_d_spacing
_pd_peak_intensity
     5.101000        440.57
     4.275519        601.29
     3.863782        172.78
     3.684813         71.74
     3.465683        942.67
     3.460059        105.94
     2.986991         88.41
     2.959000        643.68
     2.756927        244.63
     2.559536         33.39
     2.550500          1.75
     2.499058       1000.00
     2.433126        257.80
     2.354500         15.65
     2.342238        169.61
     2.294195         89.39
     2.248812        111.16
     2.242676        124.16
     2.139084         72.83
     2.137760        109.62
     2.097141          1.10
     2.017100         45.53
     2.010602         32.94
     1.935800          0.40
     1.931891         25.44
     1.872205         10.83
     1.842407        121.68
     1.839878          1.32
     1.839871          1.78
     1.819468          6.19
     1.813078         19.52
     1.791205        124.67
     1.787326          0.57
     1.785010         74.89
     1.732842        282.30
     1.730030         77.65
     1.713716         36.18
     1.700333         15.34
     1.660531        119.57
     1.634218        126.25
     1.619938          0.46
     1.604280        175.32
     1.599270          0.40
     1.582116         17.39
     1.560401         73.91
     1.551411          2.26
     1.543889          0.95
     1.541962          0.01
     1.517206          0.29
     1.500701         71.39
     1.500244         13.24
     1.495757          9.73
     1.493496         12.47
     1.492144         26.93
     1.481198          1.41
     1.479500         96.49
     1.474265        102.16
     1.454243         22.63
     1.449742          0.18
     1.425173          5.95
     1.420939          8.37
     1.406926          0.13
     1.398156         16.84
     1.392271         45.91
     1.385562         46.51
     1.381667          3.12
     1.378463         16.88
     1.374010          1.87
     1.367433          3.25
     1.360356          0.81
     1.357976         15.54
     1.355271          0.43
     1.342525         21.25
     1.338086         60.64
     1.336790          9.83
     1.303937         27.71
     1.303643         19.24
     1.300690         15.32
     1.287927         36.39
     1.284004         16.35
     1.279768          1.66
     1.275250          0.01
     1.259785         46.67
     1.252712         10.21
     1.249529          2.52
     1.246635          0.92
     1.244118          4.51
     1.243373          8.74
     1.242301          3.31
     1.239229          2.66
     1.234973          4.12
     1.230912          0.01
     1.228271          2.93
     1.219465         15.78
     1.218239          0.37
     1.217505          4.15
     1.216563         20.07
     1.214860         12.60
     1.212922          0.01
     1.205120          1.66
     1.194141          4.37
     1.177250          9.63
     1.175492          0.30
     1.171119          0.15
     1.169489          4.32
     1.160799          1.33
     1.155228         17.89
     1.153353          0.31
     1.152969          3.19
     1.147896          2.41
     1.147302          0.32
     1.147097          7.06
     1.146869         16.49
     1.143036          8.42
     1.140698          9.25
     1.137495          0.56
     1.136499          7.41
     1.132055          5.36
     1.129928          9.69
     1.126137          1.99
     1.124406         12.32
     1.121338          2.04
     1.119890          0.33
     1.116130          7.80
     1.112475          0.31
     1.106631         17.33
     1.102074          9.59
     1.101735         13.67
     1.093857          2.63
     1.093325          0.23
     1.087623         16.98
     1.087606         26.41
     1.086041          0.07
     1.083448          2.32
     1.074607          0.28
     1.073626          3.39
     1.070954          0.08
     1.070684          0.19
     1.069542          8.42
     1.068880          3.17
     1.068035          7.34
     1.067564          0.13
     1.053422          8.00
     1.052315          4.39
     1.051865          3.27
     1.051861          1.92
     1.051055          2.00
     1.049352          0.14
     1.048570          0.00
     1.046764          0.91
     1.044288          0.07
     1.041313          0.53
     1.035483          2.71
     1.032768         23.58
     1.026418          3.74
     1.021351          1.03
     1.020200          1.09
     1.019696          3.86
     1.013920         19.75
     1.009803          0.01
     1.008550          4.08
     1.006472          0.22
##############################################################################
###                            Comments                                    ###
##############################################################################
###   Diffraction pattern calculated by Match!. 
###   I/Ic calculated by Match!. 
###   Space group has been derived from given symmetry operations. 
##############################################################################


