##############################################################################
###               Crystal structure data exported by Match!                ###
##############################################################################
###                           Data published by:                           ###
###                                                                        ###
###               COD (Crystallography Open Database)
##############################################################################
data_9009830
_citation_journal_full    'Mineralogy and Petrology'
_citation_journal_volume  '39'
_citation_page_first  '201'
_citation_page_last   '209'
_citation_year  '1988'
_citation_title  'Crystal structure refinements of syntheticchalcocyanite (CuSO4) and zincosite (ZnSO4)Locality: synthetic'
loop_
_publ_author_name
  'Wildner M.'
  'Giester G.'
_chemical_formula_sum  'Cu O4 S'
_chemical_name_mineral  'Chalcocyanite'
_symmetry_space_group_name_H-M 'P n m a'
_space_group_IT_number 62
_space_group_crystal_system 'orthorhombic'
loop_
_symmetry_equiv_pos_as_xyz
   'x, y, z'
   '-x+0.5, -y, z+0.5'
   'x+0.5, -y+0.5, -z+0.5'
   '-x, y+0.5, -z'
   '-x, -y, -z'
   'x+0.5, y, -z+0.5'
   '-x+0.5, y+0.5, z+0.5'
   'x, -y+0.5, z'
_cell_length_a        8.40900
_cell_length_b        6.70900
_cell_length_c        4.83300
_cell_angle_alpha    90.0000
_cell_angle_beta     90.0000
_cell_angle_gamma    90.0000
_cell_formula_units_Z 4
loop_
_atom_site_label
_atom_site_fract_x
_atom_site_fract_y
_atom_site_fract_z
_atom_site_occupancy
_atom_site_B_iso_or_equiv
cu      0.000   0.000   0.000    1.00000    0.765
s      0.184   0.250   0.450    1.00000    0.560
o      0.129   0.250   0.735    1.00000    0.923
o      0.365   0.250   0.439    1.00000    0.726
o      0.133   0.067   0.308    1.00000    0.876
_cell_measurement_wavelength    1.541874
_cell_measurement_radiation   'x-rays'
_exptl_crystal_density_diffrn    3.888000
loop_
_pd_peak_d_spacing
_pd_peak_intensity
     4.204500        230.45
     4.190227       1000.00
     3.921447         49.24
     3.562692        337.60
     3.553995        937.10
     3.354500         45.53
     3.172124         40.96
     2.867731         15.57
     2.622191        758.77
     2.618717        805.61
     2.424713        656.40
     2.416500        156.91
     2.322504         97.73
     2.304809        140.47
     2.280354          0.63
     2.194718          1.85
     2.102250          0.58
     2.095113        125.43
     2.029585         28.33
     2.006071         39.07
     1.999867         19.03
     1.974417          0.96
     1.972933         72.88
     1.965103        228.41
     1.960724         36.81
     1.927773          4.99
     1.909503         11.50
     1.852801          0.50
     1.830242          2.65
     1.827776          0.90
     1.781346        168.12
     1.776997        388.39
     1.765717          9.18
     1.677250        158.80
     1.671428          0.51
     1.643895          1.89
     1.610929          5.30
     1.606658          3.03
     1.588378         29.44
     1.586062        131.68
     1.582225        113.19
     1.566471         33.68
     1.557868         30.75
     1.557139        127.11
     1.545650         27.95
     1.543516         11.96
     1.539979          3.70
     1.531725          8.78
     1.528957          6.67
     1.504352          0.78
     1.482741          4.73
     1.467902          9.04
     1.460147         21.30
     1.435576        234.22
     1.433866        140.51
     1.431029        140.84
     1.416370          0.43
     1.401500         59.38
     1.396742         36.73
     1.380396          8.69
     1.379394        144.32
     1.377877         82.21
     1.372642         14.01
     1.371886          0.74
     1.367423          2.15
     1.359743          7.96
     1.352073          6.01
     1.346047          0.00
     1.319747          1.84
     1.311095         14.36
     1.309359         37.20
     1.307149         28.17
     1.294977          5.60
     1.293722         10.09
     1.293173         11.25
     1.292897          3.67
     1.291637         17.27
     1.289432         28.61
     1.278713          3.63
     1.278284         14.11
     1.277881         26.71
     1.276538          0.56
     1.265361          0.69
     1.256101          5.56
     1.249227         17.03
     1.248217          5.74
     1.236551          0.20
     1.235789          0.94
     1.212357         41.42
     1.208250         23.38
     1.195967          3.12
     1.194846          7.77
     1.193034         19.31
     1.187564          8.96
     1.184665          0.42
     1.177406          0.02
     1.174642          9.13
     1.174024          0.01
     1.165813         28.57
     1.163374          6.00
     1.161838          0.98
     1.161252         17.01
     1.153292         10.99
     1.153258          0.05
     1.152404         40.11
     1.150930         36.70
     1.148600          6.26
     1.146267          0.17
     1.144238          3.33
     1.140177         14.60
     1.136759         10.00
     1.131048          5.72
     1.129933          1.65
     1.126513         24.35
     1.119892          4.15
     1.118167          0.19
     1.110061          9.38
     1.109556          0.89
     1.101292          1.15
     1.101205         16.46
     1.099149         52.99
     1.097359         43.89
     1.094687          2.33
     1.082141          3.51
     1.080606         33.46
     1.080362         46.22
     1.075700          0.55
     1.075466         37.36
     1.073311         49.60
     1.065840          1.46
     1.065814          2.91
     1.062134          0.50
     1.057375          2.40
     1.054627          3.71
     1.054567          0.69
     1.053426          0.38
     1.051125          9.46
     1.049788          3.96
     1.047557          9.58
     1.044482          5.17
     1.038457          0.16
     1.035016          0.95
     1.033776          6.83
     1.032074          5.25
     1.031020          5.62
     1.030592          1.63
     1.027114          0.10
     1.025015          7.00
     1.024392          3.29
     1.024322          3.49
     1.023356          0.39
     1.016893          4.79
     1.015398          8.79
     1.015284          0.62
     1.014793          9.21
     1.008462          0.66
     1.007483          6.75
##############################################################################
###                            Comments                                    ###
##############################################################################
###   Diffraction pattern calculated by Match!. 
###   I/Ic calculated by Match!. 
###   Space group has been derived from given symmetry operations. 
##############################################################################


