##############################################################################
###               Crystal structure data exported by Match!                ###
##############################################################################
###                           Data published by:                           ###
###                                                                        ###
###               COD (Crystallography Open Database)
##############################################################################
data_9009687
_citation_journal_full    'Journal of Applied Physics'
_citation_journal_volume  '57'
_citation_page_first  '1045'
_citation_page_last   '1049'
_citation_year  '1985'
_citation_title  'Crystal structure of low cristobalite at 10, 293, and 473 K:Variation of framework geometry with temperatureSample: T = 473 KLocality: synthetic'
loop_
_publ_author_name
  'Pluth J. J.'
  'Smith J. V.'
  'Faber J.'
_chemical_formula_sum  'O2 Si'
_chemical_name_mineral  'Cristobalite'
_symmetry_space_group_name_H-M 'P 41 21 2'
_space_group_IT_number 92
_space_group_crystal_system 'tetragonal'
loop_
_symmetry_equiv_pos_as_xyz
   'x, y, z'
   '-y+0.5, x+0.5, z+0.25'
   '-x, -y, z+0.5'
   'y+0.5, -x+0.5, z+0.75'
   'x+0.5, -y+0.5, -z+0.75'
   '-x+0.5, y+0.5, -z+0.25'
   'y, x, -z'
   '-y, -x, -z+0.5'
_cell_length_a        4.98770
_cell_length_b        4.98770
_cell_length_c        6.96970
_cell_angle_alpha    90.0000
_cell_angle_beta     90.0000
_cell_angle_gamma    90.0000
loop_
_atom_site_label
_atom_site_fract_x
_atom_site_fract_y
_atom_site_fract_z
_atom_site_occupancy
_atom_site_B_iso_or_equiv
si      0.295   0.295   0.000    1.00000    1.420
o      0.242   0.097   0.175    1.00000    2.726
_cell_measurement_wavelength    1.541874
_cell_measurement_radiation   'x-rays'
_cell_measurement_temperature    473.000000
_exptl_crystal_density_diffrn    2.302000
loop_
_pd_peak_d_spacing
_pd_peak_intensity
     4.056085       1000.00
     3.526836          4.28
     3.146879         75.02
     2.856659         89.14
     2.493850        128.29
     2.478872         53.73
     2.348064          1.08
     2.230567          0.02
     2.124423         24.42
     2.105980          1.92
     2.028043         26.50
     1.940124         41.06
     1.878679         44.07
     1.763418          4.16
     1.742425          6.42
     1.709549          0.69
     1.699894         20.51
     1.644938          4.15
     1.617192         38.45
     1.609012         16.60
     1.577249          2.51
     1.573440          1.94
     1.562174          0.15
     1.538350         20.12
     1.500545         20.42
     1.436925         25.52
     1.428329         13.75
     1.404619         11.77
     1.383339          0.04
     1.373135         19.37
     1.356871          8.53
     1.352028          5.47
     1.342497         14.23
     1.304935         15.63
     1.296359          0.31
     1.285742         16.39
     1.246925          1.70
     1.239436          8.15
     1.227436          9.49
     1.216765          1.46
     1.209695         12.94
     1.202853          0.01
     1.191876          1.23
     1.188590         12.51
     1.182098         12.78
     1.175612          1.83
     1.174032          2.12
     1.169330          5.19
     1.159237          3.56
     1.142800          1.97
     1.131339          0.01
     1.115284          0.01
     1.113934          5.22
     1.103313         13.03
     1.101273          8.73
     1.098679          2.72
     1.093546          1.80
     1.083414          3.02
     1.072956          1.65
     1.068174          0.26
     1.062211          3.27
     1.052990          0.09
     1.048960          2.06
     1.044490          2.80
     1.030280          0.08
     1.014021          1.07
##############################################################################
###                            Comments                                    ###
##############################################################################
###   Diffraction pattern calculated by Match!. 
###   I/Ic calculated by Match!. 
###   Space group has been derived from given symmetry operations. 
##############################################################################


