##############################################################################
###               Crystal structure data exported by Match!                ###
##############################################################################
###                           Data published by:                           ###
###                                                                        ###
###               COD (Crystallography Open Database)
##############################################################################
data_9016020
_citation_journal_full    'The Canadian Mineralogist'
_citation_journal_volume  '48'
_citation_page_first  '1225'
_citation_page_last   '1236'
_citation_year  '2010'
_citation_title  'Temperature dependence of the structural parametersin the transformation of aragonite to calcite,as determined from in situ synchrotron powder X-ray-diffraction dataNote: T = 578 CNote: P = 101 kPa'
loop_
_publ_author_name
  'Antao S. M.'
  'Hassan I.'
_chemical_formula_sum  'C Ca O3'
_chemical_name_mineral  'Calcite'
_symmetry_space_group_name_H-M 'R -3 c'
_space_group_IT_number 167
_space_group_crystal_system 'trigonal (hexagonal axes)'
loop_
_symmetry_equiv_pos_as_xyz
   'x, y, z'
   'x+0.66667, y+0.33333, z+0.33333'
   'x+0.33333, y+0.66667, z+0.66667'
   '-y, x-y, z'
   '-y+0.66667, x-y+0.33333, z+0.33333'
   '-y+0.33333, x-y+0.66667, z+0.66667'
   '-x+y, -x, z'
   '-x+y+0.66667, -x+0.33333, z+0.33333'
   '-x+y+0.33333, -x+0.66667, z+0.66667'
   'x-y, -y, -z+0.5'
   'x-y+0.66667, -y+0.33333, -z+0.83333'
   'x-y+0.33333, -y+0.66667, -z+0.16667'
   '-x, -x+y, -z+0.5'
   '-x+0.66667, -x+y+0.33333, -z+0.83333'
   '-x+0.33333, -x+y+0.66667, -z+0.16667'
   'y, x, -z+0.5'
   'y+0.66667, x+0.33333, -z+0.83333'
   'y+0.33333, x+0.66667, -z+0.16667'
   '-x, -y, -z'
   '-x+0.66667, -y+0.33333, -z+0.33333'
   '-x+0.33333, -y+0.66667, -z+0.66667'
   'y, -x+y, -z'
   'y+0.66667, -x+y+0.33333, -z+0.33333'
   'y+0.33333, -x+y+0.66667, -z+0.66667'
   'x-y, x, -z'
   'x-y+0.66667, x+0.33333, -z+0.33333'
   'x-y+0.33333, x+0.66667, -z+0.66667'
   '-x+y, y, z+0.5'
   '-x+y+0.66667, y+0.33333, z+0.83333'
   '-x+y+0.33333, y+0.66667, z+0.16667'
   'x, x-y, z+0.5'
   'x+0.66667, x-y+0.33333, z+0.83333'
   'x+0.33333, x-y+0.66667, z+0.16667'
   '-y, -x, z+0.5'
   '-y+0.66667, -x+0.33333, z+0.83333'
   '-y+0.33333, -x+0.66667, z+0.16667'
_cell_length_a        4.97670
_cell_length_b        4.97670
_cell_length_c       17.36100
_cell_angle_alpha    90.0000
_cell_angle_beta     90.0000
_cell_angle_gamma   120.0000
loop_
_atom_site_label
_atom_site_fract_x
_atom_site_fract_y
_atom_site_fract_z
_atom_site_occupancy
_atom_site_B_iso_or_equiv
ca      0.000   0.000   0.000    1.00000    2.818
c      0.000   0.000   0.250    1.00000    4.816
o      0.251   0.000   0.250    1.00000    4.816
_cell_measurement_wavelength    1.541874
_cell_measurement_radiation   'x-rays'
_exptl_crystal_density_diffrn    2.678000
loop_
_pd_peak_d_spacing
_pd_peak_intensity
     3.860310         80.51
     3.058251       1000.00
     2.893500         15.91
     2.488350        141.19
     2.285979        139.30
     2.091488        127.01
     1.938286        167.56
     1.930155         55.08
     1.886649        165.98
     1.621883         21.16
     1.610362          9.45
     1.601059         75.43
     1.529125         19.70
     1.525124         39.27
     1.524554         14.63
     1.474768         11.36
     1.446750         23.43
     1.436649         36.78
     1.361572          6.51
     1.351949         15.53
     1.302798         18.11
     1.286770          7.40
     1.250718         14.54
     1.244175          7.14
     1.216380          0.00
     1.192541          0.00
     1.191724          2.81
     1.187939         15.09
     1.184189          5.36
     1.152455         20.52
     1.142990         12.33
     1.133519          1.68
     1.130260          0.00
     1.076818          0.00
     1.074819          4.50
     1.069281          0.37
     1.052229          6.27
     1.049435          0.98
     1.047031         12.34
     1.045744          9.98
     1.045560          0.00
     1.032770          0.85
     1.019417         10.95
##############################################################################
###                            Comments                                    ###
##############################################################################
###   Cuenca, Spain
###   Diffraction pattern calculated by Match!. 
###   I/Ic calculated by Match!. 
##############################################################################


