##############################################################################
###               Crystal structure data exported by Match!                ###
##############################################################################
###                           Data published by:                           ###
###                                                                        ###
###               COD (Crystallography Open Database)
##############################################################################
data_9013069
_citation_journal_full    'International Journal of Coal Geology'
_citation_journal_volume  '71'
_citation_page_first  '115'
_citation_page_last   '121'
_citation_year  '2007'
_citation_title  'Arsenic in iron disulfides in a brown coal from the North Bohemian Basin,Czech RepublicLocality: syntheticSample: As-free pyrite'
loop_
_publ_author_name
  'Rieder M.'
  'Crelling J. C.'
  'Sustai O.'
  'Drabek M.'
  'Weiss Z.'
  'Klementova M.'
_chemical_formula_sum  'Fe S2'
_chemical_name_mineral  'Pyrite'
_symmetry_space_group_name_H-M 'P a -3'
_space_group_IT_number 205
_space_group_crystal_system 'cubic'
loop_
_symmetry_equiv_pos_as_xyz
   'x, y, z'
   'z, x, y'
   'y, z, x'
   '-y+0.5, -z, x+0.5'
   'z+0.5, -x+0.5, -y'
   '-y, z+0.5, -x+0.5'
   '-z+0.5, -x, y+0.5'
   '-z, x+0.5, -y+0.5'
   'y+0.5, -z+0.5, -x'
   '-x+0.5, -y, z+0.5'
   'x+0.5, -y+0.5, -z'
   '-x, y+0.5, -z+0.5'
   '-x, -y, -z'
   '-z, -x, -y'
   '-y, -z, -x'
   'y+0.5, z, -x+0.5'
   '-z+0.5, x+0.5, y'
   'y, -z+0.5, x+0.5'
   'z+0.5, x, -y+0.5'
   'z, -x+0.5, y+0.5'
   '-y+0.5, z+0.5, x'
   'x+0.5, y, -z+0.5'
   '-x+0.5, y+0.5, z'
   'x, -y+0.5, z+0.5'
_cell_length_a        5.41600
_cell_length_b        5.41600
_cell_length_c        5.41600
_cell_angle_alpha    90.0000
_cell_angle_beta     90.0000
_cell_angle_gamma    90.0000
loop_
_atom_site_label
_atom_site_fract_x
_atom_site_fract_y
_atom_site_fract_z
_atom_site_occupancy
_atom_site_B_iso_or_equiv
fe      0.000   0.000   0.000    1.00000    1.000
s      0.385   0.385   0.385    1.00000    1.000
_cell_measurement_wavelength    1.541874
_cell_measurement_radiation   'x-rays'
_exptl_crystal_density_diffrn    5.016000
loop_
_pd_peak_d_spacing
_pd_peak_intensity
     3.126929        419.19
     2.708000       1000.00
     2.422109        574.79
     2.211073        469.86
     1.914845        510.24
     1.805333          6.10
     1.632985        969.51
     1.563464        150.98
     1.502128        152.67
     1.447487        202.62
     1.354000          0.37
     1.313573          6.38
     1.276563          3.62
     1.242516         90.49
     1.211054        113.78
     1.181868         74.87
     1.154695         36.44
     1.105536        103.08
     1.083200          2.89
     1.062165          4.20
     1.042310        267.87
##############################################################################
###                            Comments                                    ###
##############################################################################
###   Diffraction pattern calculated by Match!. 
###   I/Ic calculated by Match!. 
##############################################################################


