##############################################################################
###               Crystal structure data exported by Match!                ###
##############################################################################
###                           Data published by:                           ###
###                                                                        ###
###               COD (Crystallography Open Database)
##############################################################################
data_2012675
_citation_journal_full    'Acta Crystallographica Section C'
_citation_journal_volume  '58(5)'
_citation_page_first  'i55'
_citation_page_last   'i60'
_citation_year  '2002'
_citation_title  'Copper(II) hypophosphite: the \a- and \b-forms at 270 and 100K, and the \g-form at 270K'
loop_
_publ_author_name
  'Naumov Dmitry Yu.'
  'Naumova Marina I.'
  'Kuratieva Natalia V.'
  'Boldyreva Elena V.'
  'Howard Judith A. K.'
_chemical_formula_sum  'Cu H4 O4 P2'
_chemical_name_common  'Copper(II) Hypophosphite'
_symmetry_space_group_name_H-M 'P m m a'
_space_group_IT_number 51
_space_group_crystal_system 'orthorhombic'
loop_
_symmetry_equiv_pos_as_xyz
   'x, y, z'
   '-x+0.5, -y, z'
   'x+0.5, -y, -z'
   '-x, y, -z'
   '-x, -y, -z'
   'x+0.5, y, -z'
   '-x+0.5, y, z'
   'x, -y, z'
_cell_length_a        6.67380
_cell_length_b        5.41330
_cell_length_c        7.19540
_cell_angle_alpha    90.0000
_cell_angle_beta     90.0000
_cell_angle_gamma    90.0000
_cell_formula_units_Z 2
loop_
_atom_site_label
_atom_site_fract_x
_atom_site_fract_y
_atom_site_fract_z
_atom_site_occupancy
_atom_site_B_iso_or_equiv
cu      0.000   0.500   0.000    1.00000    1.255
p      0.250   0.000   -0.148    1.00000    2.874
h      0.414   0.000   -0.259    0.50000    3.474
h      0.086   0.000   -0.259    0.50000    3.474
o      0.250   0.238   -0.036    1.00000    2.684
p      0.250   0.500   0.367    1.00000    2.447
h      0.250   0.292   0.484    0.50000    2.921
h      0.250   0.708   0.484    0.50000    2.921
o      0.056   0.500   0.266    1.00000    1.941
_cell_measurement_wavelength    1.541874
_cell_measurement_radiation   'x-rays'
_cell_measurement_temperature    270.000000
_exptl_crystal_density_diffrn    2.471000
_exptl_crystal_colour            'Blue'
loop_
_pd_peak_d_spacing
_pd_peak_intensity
     7.195400       1000.00
     5.413300        593.42
     4.893108          0.06
     4.325802         30.58
     3.629962        352.24
     3.597700         62.99
     3.336900          0.07
     3.166855        182.77
     3.027212         43.17
     2.996317         49.57
     2.840577        200.90
     2.733461          0.37
     2.706650        164.07
     2.642142        417.54
     2.533345         20.74
     2.446554          8.28
     2.398467         63.44
     2.368447          5.58
     2.257129          4.35
     2.229433         41.09
     2.192864        155.31
     2.162901          0.04
     2.125341          8.71
     2.102081         41.78
     2.083287          4.60
     2.057543         29.74
     2.017739        135.24
     1.978328          3.10
     1.947573         23.89
     1.892099         22.08
     1.832578         10.18
     1.814981         70.94
     1.804433         25.36
     1.798850         11.02
     1.795086         15.95
     1.786136          0.15
     1.750237          7.14
     1.736863          0.01
     1.733474          1.78
     1.707066         30.98
     1.692986         19.44
     1.671589          2.08
     1.668450         43.25
     1.653822          0.09
     1.631036          0.49
     1.625327         26.21
     1.612932          9.23
     1.594436         17.09
     1.587232         21.03
     1.583428         43.09
     1.580859         53.64
     1.567794          0.21
     1.561689         13.76
     1.556675          6.25
     1.550756          7.22
     1.549969         48.89
     1.519747         42.64
     1.513606         15.55
     1.498159          2.32
     1.461780          7.02
     1.457696         19.50
     1.452185          7.98
     1.441934         32.25
     1.439080          5.91
     1.420289         19.24
     1.409412          0.56
     1.406747          0.20
     1.398767          0.09
     1.396995          5.35
     1.393403          7.49
     1.390775          9.07
     1.375541          0.88
     1.369652         11.33
     1.366731         70.01
     1.361525          4.58
     1.354286          0.72
     1.353325         21.34
     1.330005          9.82
     1.327810         36.30
     1.323641          1.81
     1.321432          2.37
     1.321071          3.74
     1.312371          0.41
     1.305819          0.00
     1.304356          0.02
     1.283737          5.32
     1.275425          9.19
     1.273948          8.73
     1.270646          4.46
     1.266672          3.38
     1.254110          0.30
     1.251411          4.31
     1.251354          0.14
     1.248224          1.41
     1.244456          7.50
     1.242639          1.54
     1.235485          5.66
     1.225028          6.15
     1.223277          1.51
     1.222091          5.79
     1.219256          0.08
     1.209987          3.07
     1.208300          0.92
     1.207651          3.26
     1.199233          2.96
     1.193191          8.01
     1.190163         13.38
     1.187469          5.61
     1.184223          3.44
     1.180880          1.07
     1.180329          0.25
     1.179279          6.58
     1.178645          6.49
     1.170846          1.43
     1.166319          0.49
     1.160683          0.19
     1.159646          8.22
     1.153233          0.05
     1.141545          0.68
     1.140156          0.03
     1.135881          2.84
     1.128564          0.45
     1.125090          4.05
     1.114717          0.30
     1.112300          0.04
     1.111355          5.13
     1.109435          2.41
     1.105508          0.40
     1.104810          5.70
     1.103348          0.00
     1.100743          3.47
     1.099244          2.04
     1.096432          3.28
     1.090965         16.70
     1.089728          4.50
     1.089538          2.07
     1.082660          2.20
     1.081928          3.40
     1.081450          1.81
     1.077258         12.41
     1.071906          0.07
     1.071108          0.00
     1.070609          0.49
     1.068297          7.56
     1.067526          0.05
     1.066122          2.29
     1.062671          2.97
     1.061346          3.60
     1.057093          2.35
     1.055618          0.55
     1.051490          0.00
     1.051040         10.17
     1.042768          6.03
     1.041643          1.30
     1.041495          0.17
     1.040004          6.86
     1.036734          1.24
     1.036102          0.43
     1.029813          3.84
     1.028814          0.38
     1.028772         13.82
     1.028317          0.08
     1.027914          1.64
     1.024447          0.00
     1.019425         10.72
     1.018456          7.72
     1.015935          0.64
     1.012534          4.53
     1.010874          4.99
     1.009869          0.64
     1.009071          1.42
     1.008870          4.92
##############################################################################
###                            Comments                                    ###
##############################################################################
###   Diffraction pattern calculated by Match!. 
###   I/Ic calculated by Match!. 
##############################################################################


