##############################################################################
###               Crystal structure data exported by Match!                ###
##############################################################################
###                           Data published by:                           ###
###                                                                        ###
###               COD (Crystallography Open Database)
##############################################################################
data_1009039
_citation_journal_full    'European Journal of Solid State Inorganic Chemistry'
_citation_journal_volume  '26'
_citation_page_first  '603'
_citation_page_last   '617'
_citation_year  '1989'
_citation_title  'Two new cobalt(II) compounds exhibiting weak ferromagnetism: magnetic susceptibility study of Co H P O3 . H2 O and Co Cl (H2 P O2) . (H2 O) and crystal structure of Co H P O3 . H2 O'
loop_
_publ_author_name
  'Sapina F'
  'Gomez-Romero P'
  'Marcos M D'
  'Amoros P'
  'Ibanez R'
  'Beltran D'
  'Navarro R'
  'Rillo C'
  'Lera F'
_chemical_formula_sum  'Co H3 O4 P'
_chemical_name_common  'Cobalt hydrogenphosphate(III) hydrate'
_symmetry_space_group_name_H-M 'P c a 21'
_space_group_IT_number 29
_space_group_crystal_system 'orthorhombic'
loop_
_symmetry_equiv_pos_as_xyz
   'x, y, z'
   '-x, -y, z+0.5'
   '-x+0.5, y, z+0.5'
   'x+0.5, -y, z'
_cell_length_a        8.98400
_cell_length_b        7.91800
_cell_length_c       10.13900
_cell_angle_alpha    90.0000
_cell_angle_beta     90.0000
_cell_angle_gamma    90.0000
_cell_formula_units_Z 8
loop_
_atom_site_label
_atom_site_fract_x
_atom_site_fract_y
_atom_site_fract_z
_atom_site_occupancy
_atom_site_B_iso_or_equiv
co      0.094   0.125   0.080    1.00000    1.000
co      -0.095   -0.130   -0.064    1.00000    1.000
p      0.246   -0.230   -0.023    1.00000    1.000
p      0.092   0.133   -0.243    1.00000    1.000
o      0.060   0.383   0.124    1.00000    1.000
o      -0.065   -0.381   -0.109    1.00000    1.000
o      0.113   -0.135   0.027    1.00000    1.000
o      0.270   -0.401   0.040    1.00000    1.000
o      -0.111   0.121   -0.015    1.00000    1.000
o      0.186   0.152   -0.118    1.00000    1.000
o      0.313   0.159   0.135    1.00000    1.000
o      -0.006   0.037   0.254    1.00000    1.000
h      0.220   -0.267   -0.161    1.00000    1.000
h      -0.010   0.280   -0.252    1.00000    1.000
h      0.114   0.460   0.104    1.00000    1.000
h      -0.045   0.404   0.107    1.00000    1.000
h      -0.136   -0.440   -0.071    1.00000    1.000
h      0.059   0.395   0.314    1.00000    1.000
_cell_measurement_wavelength    1.541874
_cell_measurement_radiation   'x-rays'
_exptl_crystal_density_diffrn    2.890000
loop_
_pd_peak_d_spacing
_pd_peak_intensity
     7.918000       1000.00
     5.940187         98.88
     5.125329         41.43
     5.069500        269.34
     4.492000         23.03
     4.269410         19.54
     4.106977         16.03
     3.959000          9.43
     3.907053         32.88
     3.856128         60.20
     3.645734          3.07
     3.622834        149.56
     3.411587          4.26
     3.362042         26.37
     3.120250         19.91
     3.094628          2.40
     2.970093         27.23
     2.947536          4.95
     2.937504        192.30
     2.850314          1.91
     2.801027        189.09
     2.700652        207.97
     2.699892          8.56
     2.639333         85.32
     2.562665          2.84
     2.556063        101.15
     2.534750          0.85
     2.532316         39.15
     2.471283         68.00
     2.456846         23.93
     2.451685         33.32
     2.414069          9.87
     2.388353         30.66
     2.341057         30.38
     2.331369         58.86
     2.324726          3.04
     2.275600          0.30
     2.265407          6.74
     2.246000         15.71
     2.231003          0.31
     2.220363          0.26
     2.207544          0.80
     2.192841         17.26
     2.160753         32.42
     2.160582          1.40
     2.156622          0.02
     2.134705          2.62
     2.126446         23.46
     2.113296          0.41
     2.076880          7.37
     2.076037          3.32
     2.053488          6.22
     2.026553         48.98
     1.987729         26.53
     1.980062         24.00
     1.979500         69.48
     1.953526          0.22
     1.950472          2.37
     1.943350          2.22
     1.933131          0.13
     1.928064          4.55
     1.919063          4.99
     1.918245          0.63
     1.898924          1.43
     1.887597         42.63
     1.879445          1.13
     1.870600         65.77
     1.848208         16.03
     1.844370          2.31
     1.843915         13.76
     1.828194          0.54
     1.822867          6.09
     1.820486         22.89
     1.811417         13.22
     1.806263          2.50
     1.799827         23.44
     1.791478          4.15
     1.783182          4.09
     1.769473         18.81
     1.752250          0.01
     1.738272          1.27
     1.726654          3.65
     1.710495         21.95
     1.708443          1.31
     1.705793          8.39
     1.693324          1.77
     1.691310          0.33
     1.689833         15.01
     1.686661          1.43
     1.681021          1.09
     1.678023          1.73
     1.674705          0.39
     1.656112          1.62
     1.652617         13.54
     1.651343          1.79
     1.644371          0.50
     1.642548          2.08
     1.636174          0.05
     1.629867          0.08
     1.625346         21.96
     1.620725          2.08
     1.615277          2.01
     1.596554         65.02
     1.583600          1.46
     1.582852          2.75
     1.581622         11.39
     1.570141          1.05
     1.560400          7.97
     1.560125          3.14
     1.559557         15.17
     1.557084          1.11
     1.555600         35.22
     1.554178          1.83
     1.550982          5.02
     1.547314          1.05
     1.545795          0.27
     1.541429          0.14
     1.537120          2.95
     1.531432         17.91
     1.526163         17.16
     1.513929         13.45
     1.511567          0.61
     1.505117          0.47
     1.497333         17.63
     1.493508          2.71
     1.490616          2.02
     1.485284          3.55
     1.485047         26.91
     1.483704          0.68
     1.481268          0.54
     1.478640          1.60
     1.477564          0.42
     1.473768          1.07
     1.472671         48.55
     1.471258          4.06
     1.469599          0.61
     1.469369          4.90
     1.468752          1.92
     1.456008          1.68
     1.446915         20.45
     1.441372          1.75
     1.436006         10.16
     1.432631          3.85
     1.425367          1.77
     1.425157          8.09
     1.423137          5.16
     1.417861          0.82
     1.416692          0.10
     1.416061         19.05
     1.412957          3.41
     1.407199          0.03
     1.406877          0.03
     1.405610          6.94
     1.400513          1.01
     1.399917          5.01
     1.399201          0.05
     1.387340          0.08
     1.386760          0.10
     1.383621          1.05
     1.379467         34.43
     1.378536          1.13
     1.374661          3.20
     1.368992          3.98
     1.366067         10.71
     1.359765         16.90
     1.359583         29.04
     1.358107          4.33
     1.356678          1.39
     1.350912          7.98
     1.350326          5.70
     1.349946          0.64
     1.349411          0.16
     1.348978          4.37
     1.344922          1.19
     1.343037          0.12
     1.331108          2.56
     1.330442          0.26
     1.328277          1.05
     1.325830          0.10
     1.319667          0.01
     1.319134          0.69
     1.307463          0.73
     1.305656          5.76
     1.302351          6.55
     1.301871          0.11
     1.294963          0.28
     1.294242          7.96
     1.293823          0.15
     1.293353          0.22
     1.291738          0.91
     1.289199          0.61
     1.286864          0.56
     1.286756          1.10
     1.286591          0.56
     1.285376         16.91
     1.285222         10.44
     1.283825          0.04
     1.281485          0.69
     1.281332          2.96
     1.280469          0.77
     1.278032          1.89
     1.277105          0.58
     1.273358          1.50
     1.272444          0.41
     1.272269          0.33
     1.267375          0.20
     1.266894          0.12
     1.266158          0.28
     1.264394          1.39
     1.261392          1.21
     1.257291          0.42
     1.257118          0.18
     1.256399          0.31
     1.254020          3.82
     1.251445          0.85
     1.239478          0.75
     1.238476          0.01
     1.237972          0.25
     1.236228          0.30
     1.235641          3.05
     1.229095          0.55
     1.228423          0.86
     1.225843          2.26
     1.225442          0.85
     1.221906          3.01
     1.220878          3.97
     1.219756          0.18
     1.217928         10.85
     1.217259          0.00
     1.216360          1.50
     1.215245          4.79
     1.212122          0.36
     1.208648          1.71
     1.207611          2.64
     1.207035          0.38
     1.205536          0.81
     1.204539          1.16
     1.203124          0.47
     1.202545          3.14
     1.202131          5.40
     1.199136          0.24
     1.198239          0.26
     1.198114          0.55
     1.196286          1.62
     1.194177          8.70
     1.190838          0.15
     1.188037          1.57
     1.186943          0.24
     1.186285          4.81
     1.185979          0.11
     1.185681          0.07
     1.181049          0.20
     1.179965          1.53
     1.178029          0.07
     1.175462          0.40
     1.174741          0.10
     1.170529          0.31
     1.169038          0.21
     1.165685          1.37
     1.163504          0.01
     1.162363          0.63
     1.160718          0.13
     1.159151          0.18
     1.158394          2.48
     1.156699          0.90
     1.155506          2.31
     1.154678          2.77
     1.154202          2.50
     1.152677          0.91
     1.152381          0.04
     1.152048          0.77
     1.148254          2.90
     1.146796          0.31
     1.146066          3.02
     1.142484          0.76
     1.137800          0.85
     1.137196          0.12
     1.133357          1.61
     1.133230          0.30
     1.132703          1.73
     1.131247          0.98
     1.131143          3.02
     1.130703          0.06
     1.125956          2.89
     1.125402          0.74
     1.123000          0.09
     1.122282          0.01
     1.120805          9.36
     1.120681          3.61
     1.119518          8.48
     1.119074          0.12
     1.116396          0.15
     1.116174          0.20
     1.115602          0.96
     1.115501          5.27
     1.115470          0.38
     1.112389          0.05
     1.111873          0.25
     1.110182          0.80
     1.109622          3.42
     1.107233          1.96
     1.106827          4.96
     1.105364          0.20
     1.105247          0.36
     1.103995          0.24
     1.103772          1.17
     1.099938          0.08
     1.097780          1.03
     1.096900          0.72
     1.096421          0.70
     1.095813          0.07
     1.095753          0.26
     1.093201          1.21
     1.092716          3.80
     1.092262          3.77
     1.090969          1.00
     1.090537          0.01
     1.090206          0.14
     1.088908          0.02
     1.087994          1.08
     1.086058          0.03
     1.084524          0.19
     1.082456          3.40
     1.081784          0.16
     1.080376          0.05
     1.080291          0.34
     1.078331          0.29
     1.078311          0.54
     1.078038         10.94
     1.076889          0.24
     1.075745          9.96
     1.075740          0.61
     1.074438          0.40
     1.074295          0.04
     1.073989          0.26
     1.072091          0.63
     1.070865          0.03
     1.067441          2.09
     1.067353          0.70
     1.065707          5.97
     1.065094          5.61
     1.063771          0.10
     1.063617          0.45
     1.063223          0.79
     1.061308          0.16
     1.059899          0.16
     1.058173          4.79
     1.057813          0.55
     1.056648          0.88
     1.056184          6.44
     1.053384          0.18
     1.053330          0.04
     1.052457          0.22
     1.050428          0.41
     1.045938          0.78
     1.045334          0.13
     1.045188          0.83
     1.043325          5.62
     1.041054          0.40
     1.040953          0.61
     1.040083          0.26
     1.039766          0.81
     1.038440          1.25
     1.038019          0.51
     1.037560          0.17
     1.036979          0.01
     1.036898          0.00
     1.035848          1.24
     1.035652          1.07
     1.033351          0.02
     1.033183          2.99
     1.032956          0.04
     1.032170          0.02
     1.031543          4.81
     1.029296          2.49
     1.029075          0.07
     1.029002          0.89
     1.028025          0.09
     1.027499          1.16
     1.026917          0.34
     1.026744          2.49
     1.026196          0.47
     1.026060          0.01
     1.025066          0.38
     1.018897          1.63
     1.018311          0.34
     1.018219          0.16
     1.014561          8.09
     1.013900          0.61
     1.013654          6.45
     1.013276          0.09
     1.012530          0.72
     1.010256          3.85
     1.009832          0.03
     1.009610          3.84
     1.006983          0.68
     1.006826          0.00
     1.006683          1.09
     1.006604          0.01
##############################################################################
###                            Comments                                    ###
##############################################################################
###   Diffraction pattern calculated by Match!. 
###   I/Ic calculated by Match!. 
##############################################################################


