##############################################################################
###               Crystal structure data exported by Match!                ###
##############################################################################
###                           Data published by:                           ###
###                                                                        ###
###               COD (Crystallography Open Database)
##############################################################################
data_4002432
_citation_journal_full    'Chemistry of Materials (1,1989-)'
_citation_journal_volume  '18'
_citation_page_first  '1464'
_citation_page_last   '1469'
_citation_year  '2006'
_citation_title  'Magic silica clusters as nanoscale building units forsuper-(tris)tetrahedral materials'
loop_
_publ_author_name
  'Wojdel J.C.'
  'Zwijnenburg M.A.'
  'Bromley S.T.'
_chemical_formula_sum  'O2 Si'
_chemical_name_common  'Silica'
_symmetry_space_group_name_H-M 'P 62'
_space_group_IT_number 171
_space_group_crystal_system 'hexagonal'
loop_
_symmetry_equiv_pos_as_xyz
   'x, y, z'
   'x-y, x, z+0.33333'
   '-y, x-y, z+0.66667'
   '-x, -y, z'
   '-x+y, -x, z+0.33333'
   'y, -x+y, z+0.66667'
_cell_length_a       17.39000
_cell_length_b       17.39000
_cell_length_c       13.03600
_cell_angle_alpha    90.0000
_cell_angle_beta     90.0000
_cell_angle_gamma   120.0000
_cell_formula_units_Z 24
loop_
_atom_site_label
_atom_site_fract_x
_atom_site_fract_y
_atom_site_fract_z
_atom_site_occupancy
_atom_site_B_iso_or_equiv
si      0.620   0.620   0.000    1.00000    1.000
o      0.357   0.538   0.082    1.00000    1.000
o      0.254   0.432   0.243    1.00000    1.000
o      0.066   0.595   0.268    1.00000    1.000
o      0.178   0.432   0.091    1.00000    1.000
o      0.181   0.538   0.252    1.00000    1.000
o      0.066   0.362   0.260    1.00000    1.000
si      0.163   0.440   0.216    1.00000    1.000
o      0.704   0.638   0.074    1.00000    1.000
o      0.530   0.595   0.066    1.00000    1.000
si      0.437   0.563   0.000    1.00000    1.000
si      0.276   0.440   0.118    1.00000    1.000
_cell_measurement_wavelength    1.541874
_cell_measurement_radiation   'x-rays'
_exptl_crystal_density_diffrn    0.701000
loop_
_pd_peak_d_spacing
_pd_peak_intensity
    15.060181        299.38
     9.856395       1000.00
     8.695000         28.79
     7.530091          8.00
     7.233567          0.09
     6.520437         54.29
     5.981798         33.62
     5.692213         33.74
     5.216584         12.21
     5.215336        107.94
     5.020060          1.73
     4.928197         37.51
     4.684703          0.55
     4.347500          8.58
     4.345333          2.52
     4.287423          4.49
     4.176943          0.02
     4.175021          1.37
     4.124195          0.49
     3.977741         13.52
     3.977187          2.55
     3.886972          1.41
     3.765045          1.56
     3.763638         12.25
     3.617200          2.78
     3.616784          2.13
     3.516790         14.14
     3.455043          0.77
     3.453955         15.43
     3.339733         20.08
     3.286401          0.32
     3.285465          2.73
     3.260218          0.16
     3.186695          1.43
     3.185273          1.11
     3.073380          0.21
     3.052685          0.26
     3.051684          0.02
     3.012036          2.20
     3.011316          2.52
     2.990899          0.21
     2.934718          2.59
     2.934495          7.64
     2.898333          4.92
     2.846107          0.07
     2.845499          2.09
     2.829249          3.77
     2.828254          2.13
     2.780607          0.52
     2.734211          1.21
     2.733492          1.32
     2.704888          0.68
     2.704366          5.01
     2.648476          0.29
     2.648313          7.51
     2.621166          6.75
     2.608292         10.23
     2.607668          0.33
     2.569435          2.01
     2.568988          0.88
     2.510030          0.39
     2.498307          2.62
     2.497347          0.78
     2.475879          1.53
     2.475478          1.05
     2.464757          2.68
     2.464099          2.52
     2.463704          0.39
     2.432397          5.04
     2.411559          0.27
     2.411189          1.63
     2.380868          5.44
     2.371324          1.57
     2.370738          5.00
     2.370387          1.00
     2.342351          0.69
     2.314524          0.79
     2.314088          3.01
     2.313761          1.54
     2.296656          0.47
     2.296337          5.20
     2.261822          0.60
     2.261721          2.74
     2.235950          0.73
     2.211993          2.59
     2.211707          1.35
     2.173750          1.83
     2.173479          0.09
     2.172667          1.35
     2.166122          0.18
     2.165765          0.41
     2.151454          3.33
     2.151192          3.17
     2.150404          0.23
     2.144145          0.19
     2.143711          1.49
     2.143452          0.04
     2.122739          3.46
     2.108600          2.35
     2.107858          0.00
     2.088471          0.00
     2.087511          0.70
     2.081386          2.24
     2.081149          1.50
     2.062175          1.84
     2.062097          0.19
     2.043035          0.17
     2.042510          3.36
     2.030494          0.76
     2.029831          3.24
     1.994770          0.01
     1.993933          0.29
     1.988870          2.72
     1.988594          0.53
     1.971818          1.29
     1.971481          3.97
     1.971279          0.03
     1.944067          0.14
     1.943486          0.03
     1.938541          0.75
     1.938349          1.31
     1.928259          0.38
     1.928069          0.22
     1.927502          0.50
     1.922491          2.14
     1.907504          0.62
     1.907443          0.48
     1.897404          0.03
     1.882523          0.54
     1.882347          0.81
     1.881819          0.20
     1.877620          0.19
     1.877329          0.71
     1.877154          1.12
     1.863195          0.32
     1.849042          0.58
     1.848209          0.49
     1.839894          0.77
     1.839237          0.31
     1.821838          1.62
     1.821784          0.25
     1.820987          1.39
     1.812876          0.05
     1.812404          0.65
     1.808600          0.07
     1.808392          0.00
     1.808236          0.02
     1.807820          1.28
     1.795494          1.53
     1.795341          0.05
     1.770700          1.15
     1.770358          2.56
     1.769968          0.32
     1.762661          0.19
     1.762516          0.15
     1.762083          0.25
     1.758395          0.26
     1.746765          1.18
     1.746016          0.34
     1.739000          0.24
     1.738861          1.59
     1.738445          0.53
     1.727521          0.05
     1.727385          0.50
     1.726977          3.31
     1.723730          0.08
     1.723370          0.32
     1.712549          0.89
     1.711843          0.02
     1.701540          0.54
     1.701367          0.86
     1.700890          0.28
     1.694403          1.07
     1.694274          0.34
     1.693890          0.83
     1.680269          0.45
     1.680227          0.09
     1.673353          0.26
     1.669866          0.18
     1.669580          0.90
     1.669252          0.06
     1.659735          1.25
     1.659534          0.59
     1.659414          0.60
     1.643200          1.99
     1.642732          0.00
     1.639898          0.41
     1.639743          0.24
     1.639317          0.48
     1.633391          0.19
     1.633046          0.52
     1.630300          0.53
     1.630109          0.12
     1.629995          0.63
     1.620793          1.05
     1.620232          0.47
     1.620045          0.63
     1.614510          0.14
     1.614177          0.60
     1.605312          0.19
     1.602196          0.49
     1.601617          0.28
     1.593347          0.42
     1.592636          0.63
     1.584259          0.55
     1.583980          0.06
     1.578736          0.32
     1.578632          0.02
     1.578321          0.94
     1.567284          0.64
     1.566743          0.25
     1.566574          0.15
     1.561668          0.01
     1.561568          0.21
     1.558333          0.67
     1.550581          0.36
     1.550417          0.64
     1.550319          1.29
     1.549893          0.02
     1.536978          0.05
     1.536690          0.35
     1.534369          0.58
     1.534242          0.19
     1.534147          0.14
     1.533893          1.26
     1.529130          0.00
     1.528753          1.78
     1.526342          0.50
     1.526248          0.53
     1.525842          0.19
     1.518717          2.31
     1.518686          0.67
     1.518071          0.71
     1.506018          0.44
     1.505658          0.13
     1.503355          0.10
     1.503265          0.15
     1.496067          0.06
     1.495597          0.55
     1.495449          0.03
     1.488711          0.75
     1.488595          0.24
     1.488276          2.04
     1.483924          0.18
     1.483838          1.29
     1.474402          0.76
     1.473951          1.01
     1.473810          0.09
     1.469639          0.57
     1.469388          0.60
     1.467359          0.09
     1.467248          0.22
     1.460251          0.88
     1.459895          0.02
     1.449167          0.08
     1.448444          0.38
     1.446900          1.64
     1.446713          0.80
     1.446500          0.39
     1.442504          0.00
     1.442425          1.31
     1.442187          1.49
     1.441792          0.13
     1.440294          0.00
     1.440084          0.25
     1.433753          0.30
     1.433209          0.00
     1.429449          0.04
     1.429141          0.86
     1.428756          0.01
     1.423053          0.44
     1.422977          0.11
     1.422749          0.76
     1.422370          0.01
     1.420932          1.30
     1.420806          0.48
     1.420730          0.09
     1.420402          0.22
     1.414649          0.16
     1.414625          0.01
     1.414251          1.18
     1.414127          0.07
     1.408425          0.20
     1.408327          0.11
     1.408253          0.29
     1.408056          1.44
     1.404296          0.03
     1.404077          0.34
     1.403712          0.41
     1.396266          0.57
     1.395788          0.54
     1.392314          0.52
     1.391674          0.10
     1.390304          1.72
     1.390138          0.49
     1.389949          0.66
     1.384440          0.88
     1.384324          0.24
     1.374732          0.24
     1.374184          0.11
     1.369107          0.98
     1.369040          0.23
     1.368837          0.47
##############################################################################
###                            Comments                                    ###
##############################################################################
###   Diffraction pattern calculated by Match!. 
###   I/Ic calculated by Match!. 
###   Space group has been derived from given symmetry operations. 
##############################################################################


