##############################################################################
###               Crystal structure data exported by Match!                ###
##############################################################################
###                           Data published by:                           ###
###                                                                        ###
###               COD (Crystallography Open Database)
##############################################################################
data_2300116
_citation_journal_full    'Journal of Applied Crystallography'
_citation_journal_volume  '39(2)'
_citation_page_first  '169'
_citation_page_last   '175'
_citation_year  '2006'
_citation_title  'High-pressure X-ray investigation of zincite ZnO single crystals usingdiamond anvils with an improved shape'
loop_
_publ_author_name
  'Sowa Heidrun'
  'Ahsbahs Hans'
_chemical_formula_sum  'O Zn'
_chemical_name_common  'Zinc oxide'
_symmetry_space_group_name_H-M 'P 63 m c'
_space_group_IT_number 186
_space_group_crystal_system 'hexagonal'
loop_
_symmetry_equiv_pos_as_xyz
   'x, y, z'
   'x-y, x, z+0.5'
   '-y, x-y, z'
   '-x, -y, z+0.5'
   '-x+y, -x, z'
   'y, -x+y, z+0.5'
   '-x+y, y, z'
   'x, x-y, z'
   '-y, -x, z'
   'y, x, z+0.5'
   'x-y, -y, z+0.5'
   '-x, -x+y, z+0.5'
_cell_length_a        3.19500
_cell_length_b        3.19500
_cell_length_c        5.10270
_cell_angle_alpha    90.0000
_cell_angle_beta     90.0000
_cell_angle_gamma   120.0000
_cell_formula_units_Z 2
loop_
_atom_site_label
_atom_site_fract_x
_atom_site_fract_y
_atom_site_fract_z
_atom_site_occupancy
_atom_site_B_iso_or_equiv
zn      0.333   0.667   0.000    1.00000    0.536
o      0.333   0.667   0.381    1.00000    0.600
_cell_measurement_wavelength    1.541874
_cell_measurement_radiation   'x-rays'
_cell_measurement_temperature    293.000000
_exptl_crystal_density_diffrn    5.991000
_exptl_crystal_colour            'colourless'
loop_
_pd_peak_d_spacing
_pd_peak_intensity
     2.766951        518.82
     2.551350        389.97
     2.432361       1000.00
     1.875673        218.18
     1.597500        324.52
     1.524534          0.00
     1.449015        297.38
     1.383476         45.59
     1.353984        255.53
     1.335268        132.30
     1.275675         21.94
     1.216181         41.90
     1.164442          0.00
     1.158481         23.26
     1.073273         94.99
     1.045809         32.40
     1.024513        108.44
##############################################################################
###                            Comments                                    ###
##############################################################################
###   Diffraction pattern calculated by Match!. 
###   I/Ic calculated by Match!. 
###   Space group has been derived from given symmetry operations. 
##############################################################################


