##############################################################################
###               Crystal structure data exported by Match!                ###
##############################################################################
###                           Data published by:                           ###
###                                                                        ###
###               COD (Crystallography Open Database)
##############################################################################
data_4513292
_citation_journal_full    'Design''
_citation_journal_volume  '15(8)'
_citation_page_first  '3950'
_citation_year  '2015'
_citation_title  'Cascade of High-Pressure Transitions of Claudetite II and the First PolarPhase of Arsenic(III) Oxide'
loop_
_publ_author_name
  'Gunka Piotr A.'
  'Dranka Maciej'
  'Hanfland Michael'
  'Dziubek Kamil F.'
  'Katrusiak Andrzej'
  'Zachara Janusz'
_chemical_formula_sum  'As2 O3'
_chemical_name_common  'Arsenic(III) trioxide'
_symmetry_space_group_name_H-M 'P 1 21 1'
_space_group_IT_number 4
_space_group_crystal_system 'monoclinic'
loop_
_symmetry_equiv_pos_as_xyz
   'x, y, z'
   '-x, y+0.5, -z'
_cell_length_a        8.35570
_cell_length_b        4.08290
_cell_length_c        7.38500
_cell_angle_alpha    90.0000
_cell_angle_beta    107.0400
_cell_angle_gamma    90.0000
_cell_formula_units_Z 4
loop_
_atom_site_label
_atom_site_fract_x
_atom_site_fract_y
_atom_site_fract_z
_atom_site_occupancy
_atom_site_B_iso_or_equiv
as      0.372   0.224   -0.111    1.00000    2.210
as      0.118   0.023   0.125    1.00000    2.131
o      0.578   0.306   0.044    1.00000    1.342
o      0.257   0.297   0.055    1.00000    1.658
o      -0.037   0.335   0.104    1.00000    1.894
as      0.399   0.602   0.355    1.00000    2.289
as      0.143   0.655   0.574    1.00000    2.763
o      0.526   0.240   0.404    1.00000    1.421
o      0.227   0.421   0.419    1.00000    1.973
o      -0.025   0.815   0.383    1.00000    1.737
_cell_measurement_wavelength    1.541874
_cell_measurement_radiation   'x-rays'
_cell_measurement_temperature    293.000000
_cell_measurement_pressure       11920000.000000
_exptl_crystal_density_diffrn    5.455000
loop_
_pd_peak_d_spacing
_pd_peak_intensity
     7.988888          3.90
     7.060802          0.35
     6.282391          2.95
     4.656621         13.26
     4.017646          1.41
     3.994444         17.67
     3.648534          2.87
     3.635613         14.96
     3.534519         14.18
     3.530401         86.25
     3.423444         27.79
     3.141196        490.70
     3.108166          1.94
     3.069964       1000.00
     2.927517          4.25
     2.863697         35.09
     2.855259        105.02
     2.774518         42.80
     2.720557         10.51
     2.670510         74.19
     2.662963          3.16
     2.508565         21.24
     2.489639         76.79
     2.473097         24.43
     2.461663         52.03
     2.379139          9.23
     2.353601          0.23
     2.351426          8.97
     2.328311        250.83
     2.294807        303.95
     2.280725          7.60
     2.230475         18.90
     2.137372         26.58
     2.108138        169.93
     2.097204          5.95
     2.094130          1.37
     2.088807          5.28
     2.041450         38.22
     2.039070          8.61
     2.037655         43.27
     2.022558          4.98
     2.008823          0.24
     1.997222         85.98
     1.991130          6.11
     1.977894         25.45
     1.961127         22.07
     1.941518        117.23
     1.877825          0.02
     1.869673          0.24
     1.865496          4.78
     1.863332          7.57
     1.859578         22.48
     1.841025          5.20
     1.824267          0.25
     1.819978         10.60
     1.817806          0.31
     1.809121          0.01
     1.806161          5.51
     1.802470         24.72
     1.794076         25.27
     1.789387          0.06
     1.781537         16.54
     1.767260          7.06
     1.765200         78.74
     1.721919          0.18
     1.711722         46.47
     1.706318          3.99
     1.706035          0.07
     1.678298          1.88
     1.674517          5.01
     1.667082          0.08
     1.665573         16.31
     1.654021         10.06
     1.651759         11.18
     1.648350          1.69
     1.644311         16.43
     1.638900          6.13
     1.626157          1.23
     1.620256         19.56
     1.620153         11.45
     1.597778          3.15
     1.586591          5.19
     1.583396         20.00
     1.571400         18.61
     1.570598         14.57
     1.554083          1.43
     1.552207          5.88
     1.549715         19.23
     1.543386          3.62
     1.542162          0.52
     1.541550          1.57
     1.534982         37.20
     1.528486          0.66
     1.521107         51.79
     1.510740          0.44
     1.487904          0.42
     1.474053          1.07
     1.468493          1.80
     1.466198          2.68
     1.465880         31.33
     1.463758          5.55
     1.462837         32.09
     1.461793         37.83
     1.459978          2.74
     1.452426         15.57
     1.450894         67.65
     1.448858         25.52
     1.433522         22.60
     1.431848          4.37
     1.427629         32.26
     1.412160          0.74
     1.407413          3.91
     1.387259         22.06
     1.386462          6.54
     1.384378          2.52
     1.382054          5.53
     1.381832         47.44
     1.379919          1.86
     1.377885         11.85
     1.367184         17.86
     1.360278          2.74
     1.355378          9.32
     1.353964          3.95
     1.352722          0.53
     1.352575         11.18
     1.345632          3.10
     1.341638          9.23
     1.341225          0.54
     1.339215          3.87
     1.336368          2.99
     1.335255          7.84
     1.334588         12.78
     1.331481          0.60
     1.330579          4.76
     1.330114          2.06
     1.325610          3.22
     1.317793          0.20
     1.316224         12.58
     1.313510         19.22
     1.311063          3.98
     1.306318          3.38
     1.305626          0.74
     1.291240         16.79
     1.289017          2.83
     1.288245         24.32
     1.286352          7.81
     1.282477          8.03
     1.275142          7.60
     1.274234          4.51
     1.272510          3.53
     1.271941          2.30
     1.269876         26.08
     1.265870          7.29
     1.260821         19.81
     1.258222          3.75
     1.256478          1.55
     1.254282          0.53
     1.254089          0.87
     1.248794          3.11
     1.246691          1.23
     1.244819          2.98
     1.243735          0.02
     1.243589          0.39
     1.236549          1.12
     1.235603          1.91
     1.234345          8.83
     1.234125         11.29
     1.230832          4.03
     1.223495          0.35
     1.221882          3.33
     1.216779          0.01
     1.216178          1.07
     1.211871          4.71
     1.200899          1.18
     1.198981          3.19
     1.196255          1.46
     1.195075          0.20
     1.193075          1.55
     1.192106          2.49
     1.191057          1.64
     1.190878          9.21
     1.189758          0.30
     1.189569          2.49
     1.182555          5.47
     1.178448          9.86
     1.178173          1.84
     1.177900          4.56
     1.176800          1.69
     1.175713          0.01
     1.174962          1.67
     1.173169          5.86
     1.172005          1.82
     1.171949          0.12
     1.170339          0.56
     1.168704          1.22
     1.166097          1.70
     1.165568          4.37
     1.164155          9.19
     1.161374          0.08
     1.158729          4.43
     1.151770          2.08
     1.147404          1.48
     1.145772          1.05
     1.145184          2.52
     1.141645          0.81
     1.141270          0.81
     1.141148          2.92
     1.140362         12.02
     1.140284          3.39
     1.135871         10.04
     1.130768          4.45
     1.129804          4.31
     1.129167          0.65
     1.126730          8.14
     1.126462          2.20
     1.125032          0.50
     1.124671          0.36
     1.120945          0.49
     1.119770          0.09
     1.119597          0.10
     1.119536          1.00
     1.119209          0.75
     1.117962          1.54
     1.116564          0.00
     1.115238          0.90
     1.111781          3.95
     1.108508          0.73
     1.107157          1.78
     1.101980          2.29
     1.099912          1.52
     1.099137          0.33
     1.098327          1.37
     1.094398          2.26
     1.090846          8.82
     1.087582          1.56
     1.086938          2.70
     1.083249          0.76
     1.079738          1.73
     1.079389          1.77
     1.078270          1.79
     1.077986          0.12
     1.077813          3.80
     1.077016          0.95
     1.070043          4.18
     1.068686          3.43
     1.067729          1.33
     1.062139          0.42
     1.054262          0.61
     1.054069          0.87
     1.054054          2.60
     1.050851          3.25
     1.050783          1.28
     1.049476          0.59
     1.049450          0.17
     1.048602          3.79
     1.047065          0.70
     1.045203          3.43
     1.044822          4.51
     1.044403          0.01
     1.043679          0.88
     1.042321          0.00
     1.042271          0.57
     1.039307          2.56
     1.036060          1.94
     1.036055          0.02
     1.034758          1.51
     1.031574          0.30
     1.030063          4.13
     1.029983          0.25
     1.028538          1.82
     1.023858          8.23
     1.023321          0.49
     1.023270          3.45
     1.022606          0.20
     1.020725          0.10
     1.020647          0.04
     1.020592          1.79
     1.019535          1.60
     1.018828          1.61
     1.017684          0.50
     1.017622          0.67
     1.016375          5.11
     1.015641          2.56
     1.015325          2.83
     1.014244          4.47
     1.012494          0.03
     1.011824          1.31
     1.011279          6.45
     1.010224          5.88
     1.009930          0.31
     1.008686          0.27
     1.007514          4.21
     1.007188          1.69
##############################################################################
###                            Comments                                    ###
##############################################################################
###   Diffraction pattern calculated by Match!. 
###   I/Ic calculated by Match!. 
###   Space group has been derived from given symmetry operations. 
##############################################################################


