##############################################################################
###               Crystal structure data exported by Match!                ###
##############################################################################
###                           Data published by:                           ###
###                                                                        ###
###               COD (Crystallography Open Database)
##############################################################################
data_1548825
_citation_page_first  '4'
_citation_page_last   '5'
_citation_year  '1986'
_citation_title  'Where Does the Density Localize in the Solid State? Divergent Behaviorfor Hybrids and DFT+U.'
loop_
_publ_author_name
  'Zhao Qing'
  'Kulik Heather J.'
_chemical_formula_sum  'C Co O3'
_chemical_name_mineral  'Sphaerocobaltite'
_chemical_name_common  'Cobalt carbonate'
_symmetry_space_group_name_H-M 'R -3 c'
_space_group_IT_number 167
_space_group_crystal_system 'trigonal (hexagonal axes)'
loop_
_symmetry_equiv_pos_as_xyz
   'x, y, z'
   'x+0.66667, y+0.33333, z+0.33333'
   'x+0.33333, y+0.66667, z+0.66667'
   '-y, x-y, z'
   '-y+0.66667, x-y+0.33333, z+0.33333'
   '-y+0.33333, x-y+0.66667, z+0.66667'
   '-x+y, -x, z'
   '-x+y+0.66667, -x+0.33333, z+0.33333'
   '-x+y+0.33333, -x+0.66667, z+0.66667'
   'x-y, -y, -z+0.5'
   'x-y+0.66667, -y+0.33333, -z+0.83333'
   'x-y+0.33333, -y+0.66667, -z+0.16667'
   '-x, -x+y, -z+0.5'
   '-x+0.66667, -x+y+0.33333, -z+0.83333'
   '-x+0.33333, -x+y+0.66667, -z+0.16667'
   'y, x, -z+0.5'
   'y+0.66667, x+0.33333, -z+0.83333'
   'y+0.33333, x+0.66667, -z+0.16667'
   '-x, -y, -z'
   '-x+0.66667, -y+0.33333, -z+0.33333'
   '-x+0.33333, -y+0.66667, -z+0.66667'
   'y, -x+y, -z'
   'y+0.66667, -x+y+0.33333, -z+0.33333'
   'y+0.33333, -x+y+0.66667, -z+0.66667'
   'x-y, x, -z'
   'x-y+0.66667, x+0.33333, -z+0.33333'
   'x-y+0.33333, x+0.66667, -z+0.66667'
   '-x+y, y, z+0.5'
   '-x+y+0.66667, y+0.33333, z+0.83333'
   '-x+y+0.33333, y+0.66667, z+0.16667'
   'x, x-y, z+0.5'
   'x+0.66667, x-y+0.33333, z+0.83333'
   'x+0.33333, x-y+0.66667, z+0.16667'
   '-y, -x, z+0.5'
   '-y+0.66667, -x+0.33333, z+0.83333'
   '-y+0.33333, -x+0.66667, z+0.16667'
_cell_length_a        4.66180
_cell_length_b        4.66180
_cell_length_c       14.96300
_cell_angle_alpha    90.0000
_cell_angle_beta     90.0000
_cell_angle_gamma   120.0000
_cell_formula_units_Z 6
loop_
_atom_site_label
_atom_site_fract_x
_atom_site_fract_y
_atom_site_fract_z
_atom_site_occupancy
_atom_site_B_iso_or_equiv
co      0.000   0.000   0.000    1.00000    0.481
c      0.000   0.000   0.250    1.00000    0.455
o      0.277   0.000   0.250    1.00000    0.526
_cell_measurement_wavelength    1.541874
_cell_measurement_radiation   'x-rays'
_exptl_crystal_density_diffrn    4.210000
loop_
_pd_peak_d_spacing
_pd_peak_intensity
     3.552937        421.66
     2.743945       1000.00
     2.493833          0.15
     2.330900        229.69
     2.111683        163.76
     1.948924        211.49
     1.776469        117.12
     1.702885        305.96
     1.697098        190.70
     1.518059         17.04
     1.495150        140.37
     1.412900        111.75
     1.403037         28.43
     1.371973         44.51
     1.359409         10.00
     1.353529         21.99
     1.345746        109.82
     1.246917         34.45
     1.241951          6.49
     1.202070         32.29
     1.184312         12.68
     1.182361         56.56
     1.165450         22.11
     1.134880          3.01
     1.116606          0.45
     1.107394         18.78
     1.099481         34.07
     1.072702         72.90
     1.068366         38.50
     1.055841         44.37
     1.048722          0.36
     1.033194          9.81
     1.015395          2.96
##############################################################################
###                            Comments                                    ###
##############################################################################
###   Diffraction pattern calculated by Match!. 
###   I/Ic calculated by Match!. 
##############################################################################


