##############################################################################
###               Crystal structure data exported by Match!                ###
##############################################################################
###                           Data published by:                           ###
###                                                                        ###
###               COD (Crystallography Open Database)
##############################################################################
data_4124080
_citation_journal_full    'Journal of the American Chemical Society'
_citation_journal_volume  '126'
_citation_page_first  '9769'
_citation_page_last   '9775'
_citation_year  '2004'
_citation_title  'Chemical evaluation of hypothetical uninodal zeolites'
loop_
_publ_author_name
  'Foster M.D.'
  'Friedrichs O.D.'
  'Bell R.G.'
  'Paz F.A.A.'
  'Klinowski J.'
_chemical_formula_sum  'O2 Si'
_chemical_name_common  'Silica'
_symmetry_space_group_name_H-M 'P c c a'
_space_group_IT_number 54
_space_group_crystal_system 'orthorhombic'
loop_
_symmetry_equiv_pos_as_xyz
   'x, y, z'
   '-x+0.5, -y, z'
   'x+0.5, -y, -z+0.5'
   '-x, y, -z+0.5'
   '-x, -y, -z'
   'x+0.5, y, -z'
   '-x+0.5, y, z+0.5'
   'x, -y, z+0.5'
_cell_length_a        7.24919
_cell_length_b        4.27860
_cell_length_c        8.54300
_cell_angle_alpha    90.0000
_cell_angle_beta     90.0000
_cell_angle_gamma    90.0000
_cell_formula_units_Z 8
loop_
_atom_site_label
_atom_site_fract_x
_atom_site_fract_y
_atom_site_fract_z
_atom_site_occupancy
_atom_site_B_iso_or_equiv
o      0.250   0.000   0.792    1.00000    1.000
o      0.000   0.000   0.000    1.00000    1.000
o      0.250   0.500   0.971    1.00000    1.000
o      0.500   0.402   0.750    1.00000    1.000
si      0.117   0.768   0.886    1.00000    1.000
_cell_measurement_wavelength    1.541874
_cell_measurement_radiation   'x-rays'
_exptl_crystal_density_diffrn    3.012000
loop_
_pd_peak_d_spacing
_pd_peak_intensity
     4.278600         25.79
     4.271500         24.15
     3.680138       1000.00
     3.624595          5.49
     3.383388        792.56
     3.022914          0.30
     2.790051         15.10
     2.765614          2.17
     2.763694          0.03
     2.631175        478.61
     2.321505        611.45
     2.253193        108.08
     2.139300          0.24
     2.135750          0.37
     2.103188         64.30
     2.048687          3.30
     2.042985         19.51
     1.995084          7.29
     1.983958         96.29
     1.912812          0.51
     1.910907          2.52
     1.887478          0.74
     1.849509         47.15
     1.847787         38.10
     1.842338          9.63
     1.840069          1.41
     1.812297          0.21
     1.800936          7.07
     1.692231         79.49
     1.691694          3.55
     1.690376          1.94
     1.668770          0.40
     1.668348          1.37
     1.664706         25.71
     1.637815          3.73
     1.600271          6.10
     1.574330         14.71
     1.554361          0.02
     1.550060          3.88
     1.546839          2.07
     1.511457        149.73
     1.499783        117.08
     1.498864         18.11
     1.479637          6.40
     1.453573         88.49
     1.439766          1.17
     1.426200          0.06
     1.423833          2.38
     1.397139          1.68
     1.396068          0.88
     1.395026          1.18
     1.382807        129.55
     1.381847        123.95
     1.380971          5.32
     1.372909          4.41
     1.365040          0.10
     1.355743         15.57
     1.352787          3.34
     1.350991          2.60
     1.329830          2.84
     1.328124          0.15
     1.327157          2.27
     1.326355         10.50
     1.325249          0.82
     1.315587          6.54
     1.314967          0.62
     1.312976          5.50
     1.311427         36.89
     1.307258          0.05
     1.281425          2.11
     1.267392         17.86
     1.265915         14.31
     1.255924         38.76
     1.252777          2.62
     1.243905          0.04
     1.236858         41.34
     1.226713         35.73
     1.215725         17.53
     1.208198          1.15
     1.202931         13.55
     1.199555          0.93
     1.193831          1.63
     1.188511          5.17
     1.186063          7.05
     1.185306         10.30
     1.180397          4.43
     1.179203          0.57
     1.170500          6.65
     1.169772         45.26
     1.168563          0.85
     1.162730          0.00
     1.162587          0.07
     1.160752          7.50
     1.158534         31.30
     1.155440         20.26
     1.155020          4.76
     1.152108         23.38
     1.127796          3.34
     1.127247          4.72
     1.126596          0.24
     1.121908         20.59
     1.120770          6.98
     1.119621          5.23
     1.116546          3.10
     1.111248          0.79
     1.105969          0.02
     1.084075          0.95
     1.083150          3.56
     1.082612          8.29
     1.076455          9.52
     1.074886          0.06
     1.070329          7.67
     1.069650         15.53
     1.067875         11.64
     1.064720          1.65
     1.064172          4.29
     1.056474          1.96
     1.055689          7.13
     1.052017          0.42
     1.051594          3.06
     1.050167          3.75
     1.048906          0.01
     1.048116         24.34
     1.046296          0.34
     1.044130          0.90
     1.042904          0.33
     1.037611          3.75
     1.036092          0.00
     1.027143         18.21
     1.025910          0.97
     1.025669          4.82
     1.024343          4.51
     1.021493          0.74
     1.021202          0.42
     1.018591          3.45
     1.017441          0.12
     1.015871         10.38
     1.009605         15.31
     1.007638          0.56
     1.006442         16.86
##############################################################################
###                            Comments                                    ###
##############################################################################
###   Diffraction pattern calculated by Match!. 
###   I/Ic calculated by Match!. 
###   Space group has been derived from given symmetry operations. 
##############################################################################


