##############################################################################
###               Crystal structure data exported by Match!                ###
##############################################################################
###                           Data published by:                           ###
###                                                                        ###
###               COD (Crystallography Open Database)
##############################################################################
data_9005017
_citation_journal_full    'European Journal of Mineralogy'
_citation_journal_volume  '2'
_citation_page_first  '63'
_citation_page_last   '77'
_citation_year  '1990'
_citation_title  'An X-ray study of the temperature dependence of the quartz structureSample: at T = 298 K'
loop_
_publ_author_name
  'Kihara K.'
_chemical_formula_sum  'O2 Si'
_chemical_name_mineral  'Quartz'
_symmetry_space_group_name_H-M 'P 32 2 1 S'
_space_group_IT_number 154
_space_group_crystal_system 'trigonal (hexagonal axes)'
loop_
_symmetry_equiv_pos_as_xyz
   'x, y, z'
   'y, x, -z+0.66667'
   '-y, x-y, z+0.66667'
   '-x, -x+y, -z+0.33333'
   '-x+y, -x, z+0.33333'
   'x-y, -y, -z'
_cell_length_a        4.91370
_cell_length_b        4.91370
_cell_length_c        5.40470
_cell_angle_alpha    90.0000
_cell_angle_beta     90.0000
_cell_angle_gamma   120.0000
loop_
_atom_site_label
_atom_site_fract_x
_atom_site_fract_y
_atom_site_fract_z
_atom_site_occupancy
_atom_site_B_iso_or_equiv
si      0.470   0.000   0.000    1.00000    0.515
o      0.413   0.267   0.119    1.00000    1.077
_cell_measurement_wavelength    1.541874
_cell_measurement_radiation   'x-rays'
_cell_measurement_temperature    298.000000
_exptl_crystal_density_diffrn    2.649000
loop_
_pd_peak_d_spacing
_pd_peak_intensity
     4.255389        199.03
     3.343432       1000.00
     2.456850         72.02
     2.281233         72.87
     2.236608         32.30
     2.127695         53.56
     1.979803         30.63
     1.817865        126.24
     1.801567          3.36
     1.671716         38.22
     1.659015         16.48
     1.608386          2.32
     1.541573         92.10
     1.452827         17.45
     1.418463          4.23
     1.382110         56.94
     1.374906         67.95
     1.371998         42.31
     1.287815         22.70
     1.255956         28.32
     1.228425         15.14
     1.199807         29.07
     1.197874          8.32
     1.183940         24.50
     1.180233         27.63
     1.153060         18.29
     1.140617          2.74
     1.118304          0.21
     1.114477          2.68
     1.081579         29.04
     1.063847          5.48
     1.047668         15.39
     1.043818         10.65
     1.034560         16.77
     1.014936         14.59
##############################################################################
###                            Comments                                    ###
##############################################################################
###   Diffraction pattern calculated by Match!. 
###   I/Ic calculated by Match!. 
###   Space group has been derived from given symmetry operations. 
##############################################################################


