##############################################################################
###               Crystal structure data exported by Match!                ###
##############################################################################
###                           Data published by:                           ###
###                                                                        ###
###               COD (Crystallography Open Database)
##############################################################################
data_4124047
_citation_journal_full    'Journal of the American Chemical Society'
_citation_journal_volume  '126'
_citation_page_first  '9769'
_citation_page_last   '9775'
_citation_year  '2004'
_citation_title  'Chemical evaluation of hypothetical uninodal zeolites'
loop_
_publ_author_name
  'Foster M.D.'
  'Friedrichs O.D.'
  'Bell R.G.'
  'Paz F.A.A.'
  'Klinowski J.'
_chemical_formula_sum  'O2 Si'
_chemical_name_common  'Silica'
_symmetry_space_group_name_H-M 'P 42/m c m'
_space_group_IT_number 132
_space_group_crystal_system 'tetragonal'
loop_
_symmetry_equiv_pos_as_xyz
   'x, y, z'
   '-y, x, z+0.5'
   '-x, -y, z'
   'y, -x, z+0.5'
   'x, -y, -z+0.5'
   '-x, y, -z+0.5'
   'y, x, -z'
   '-y, -x, -z'
   '-x, -y, -z'
   'y, -x, -z+0.5'
   'x, y, -z'
   '-y, x, -z+0.5'
   '-x, y, z+0.5'
   'x, -y, z+0.5'
   '-y, -x, z'
   'y, x, z'
_cell_length_a        8.11427
_cell_length_b        8.11427
_cell_length_c        5.44596
_cell_angle_alpha    90.0000
_cell_angle_beta     90.0000
_cell_angle_gamma    90.0000
_cell_formula_units_Z 8
loop_
_atom_site_label
_atom_site_fract_x
_atom_site_fract_y
_atom_site_fract_z
_atom_site_occupancy
_atom_site_B_iso_or_equiv
o      0.231   0.000   0.250    1.00000    1.000
si      0.314   0.933   0.500    1.00000    1.000
o      0.500   0.000   0.500    1.00000    1.000
o      0.266   0.734   0.500    1.00000    1.000
_cell_measurement_wavelength    1.541874
_cell_measurement_radiation   'x-rays'
_exptl_crystal_density_diffrn    2.226000
loop_
_pd_peak_d_spacing
_pd_peak_intensity
     8.114270       1000.00
     5.737655        469.52
     4.057135          0.00
     3.949972        479.04
     3.628812        378.12
     3.019822         18.49
     2.868828         43.48
     2.722980         87.76
     2.704757        137.77
     2.581501          2.66
     2.565958          0.00
     2.538191         76.99
     2.460006        128.79
     2.321208          3.65
     2.260958          0.06
     2.250494         11.98
     2.177989         11.36
     2.079900         52.78
     2.028568         63.09
     1.974986         42.49
     1.968000          7.87
     1.918962         30.40
     1.912552          1.19
     1.867451          4.94
     1.850857        113.53
     1.814406          0.09
     1.804509          1.05
     1.734708         33.95
     1.730760         30.24
     1.721383          0.00
     1.626765          0.23
     1.623508          2.70
     1.622854          7.12
     1.595026          7.57
     1.591339          8.22
     1.565076          2.90
     1.555269          4.48
     1.534005         13.61
     1.527464         26.13
     1.509911          0.47
     1.506782          0.58
     1.481954          1.79
     1.452222         20.32
     1.434414         13.06
     1.412944         13.61
     1.394049         47.26
     1.391586         11.49
     1.387106         35.39
     1.373920         29.84
     1.361490         27.62
     1.352378          0.04
     1.348265         17.45
     1.342720          6.95
     1.334341         32.11
     1.333978          4.08
     1.324706          7.54
     1.318393          0.21
     1.316657          0.60
     1.295674          0.01
     1.290751          0.00
     1.282979          7.49
     1.274724         17.90
     1.269096          0.01
     1.267236          1.74
     1.248793          8.57
     1.239146         18.71
     1.234261          3.72
     1.230003          4.50
     1.216111         13.36
     1.211221          0.06
     1.209875          1.94
     1.209604          5.87
     1.202678          0.46
     1.197948         15.74
     1.196646          9.20
     1.180828          3.71
     1.164904          0.49
     1.160604         52.36
     1.159420          8.48
     1.159181          0.18
     1.148911          3.35
     1.147531          2.33
     1.130479          7.26
     1.125465         16.08
     1.125247          0.03
     1.122874          1.18
     1.119665          1.07
     1.114581          0.00
     1.109155          0.02
     1.105442          0.29
     1.104418          7.76
     1.101970          0.22
     1.091946          2.67
     1.088994          0.03
     1.074951          0.01
     1.070082          4.19
     1.066560          0.80
     1.065456          7.70
     1.057464          1.83
     1.047724          4.74
     1.045633          7.48
     1.043213          0.62
     1.043040          3.28
     1.039950          0.00
     1.039097          2.00
     1.038926          0.60
     1.034528          3.21
     1.031513         10.27
     1.020522          5.85
     1.018272          3.17
     1.014284          0.78
     1.010190          0.30
     1.006607          2.37
     1.006451          0.44
##############################################################################
###                            Comments                                    ###
##############################################################################
###   Diffraction pattern calculated by Match!. 
###   I/Ic calculated by Match!. 
###   Space group has been derived from given symmetry operations. 
##############################################################################


