##############################################################################
###               Crystal structure data exported by Match!                ###
##############################################################################
###                           Data published by:                           ###
###                                                                        ###
###               COD (Crystallography Open Database)
##############################################################################
data_9010441
_citation_journal_full    'American Mineralogist'
_citation_journal_volume  '93'
_citation_page_first  '853'
_citation_page_last   '862'
_citation_year  '2008'
_citation_title  'Crystal chemistry of the natrojarosite-jarosite and natrojarosite-hydroniumjarosite solid-solution: A synthetic study with full Fe site occupancyLocality: syntheticSample: M'
loop_
_publ_author_name
  'Basciano L. C.'
  'Peterson R. C.'
_chemical_formula_sum  'Fe3 H6 K0.52 Na0.46 O14 S2'
_chemical_name_mineral  'Jarosite'
_symmetry_space_group_name_H-M 'R -3 m'
_space_group_IT_number 166
_space_group_crystal_system 'trigonal (hexagonal axes)'
loop_
_symmetry_equiv_pos_as_xyz
   'x, y, z'
   'x+0.66667, y+0.33333, z+0.33333'
   'x+0.33333, y+0.66667, z+0.66667'
   '-y, x-y, z'
   '-y+0.66667, x-y+0.33333, z+0.33333'
   '-y+0.33333, x-y+0.66667, z+0.66667'
   '-x+y, -x, z'
   '-x+y+0.66667, -x+0.33333, z+0.33333'
   '-x+y+0.33333, -x+0.66667, z+0.66667'
   'x-y, -y, -z'
   'x-y+0.66667, -y+0.33333, -z+0.33333'
   'x-y+0.33333, -y+0.66667, -z+0.66667'
   '-x, -x+y, -z'
   '-x+0.66667, -x+y+0.33333, -z+0.33333'
   '-x+0.33333, -x+y+0.66667, -z+0.66667'
   'y, x, -z'
   'y+0.66667, x+0.33333, -z+0.33333'
   'y+0.33333, x+0.66667, -z+0.66667'
   '-x, -y, -z'
   '-x+0.66667, -y+0.33333, -z+0.33333'
   '-x+0.33333, -y+0.66667, -z+0.66667'
   'y, -x+y, -z'
   'y+0.66667, -x+y+0.33333, -z+0.33333'
   'y+0.33333, -x+y+0.66667, -z+0.66667'
   'x-y, x, -z'
   'x-y+0.66667, x+0.33333, -z+0.33333'
   'x-y+0.33333, x+0.66667, -z+0.66667'
   '-x+y, y, z'
   '-x+y+0.66667, y+0.33333, z+0.33333'
   '-x+y+0.33333, y+0.66667, z+0.66667'
   'x, x-y, z'
   'x+0.66667, x-y+0.33333, z+0.33333'
   'x+0.33333, x-y+0.66667, z+0.66667'
   '-y, -x, z'
   '-y+0.66667, -x+0.33333, z+0.33333'
   '-y+0.33333, -x+0.66667, z+0.66667'
_cell_length_a        7.30790
_cell_length_b        7.30790
_cell_length_c       16.90280
_cell_angle_alpha    90.0000
_cell_angle_beta     90.0000
_cell_angle_gamma   120.0000
loop_
_atom_site_label
_atom_site_fract_x
_atom_site_fract_y
_atom_site_fract_z
_atom_site_occupancy
_atom_site_B_iso_or_equiv
k      0.000   0.000   0.000    0.52000    1.899
na      0.000   0.000   0.000    0.46000    1.899
fe      0.167   -0.167   -0.167    1.00000    2.139
s      0.000   0.000   0.310    1.00000    1.200
o      0.000   0.000   0.395    1.00000    1.999
o      0.225   -0.225   -0.054    1.00000    1.899
o      0.127   -0.127   0.133    1.00000    0.400
h      0.157   -0.157   0.173    1.00000    1.999
_cell_measurement_wavelength    1.541874
_cell_measurement_radiation   'x-rays'
_exptl_crystal_density_diffrn    3.139000
loop_
_pd_peak_d_spacing
_pd_peak_intensity
     5.926986        251.60
     5.634267        277.52
     5.065858        698.54
     3.653950         88.09
     3.514333         42.74
     3.110376        670.65
     3.065699       1000.00
     2.981832         14.65
     2.963493        105.30
     2.817133        187.37
     2.532929        184.71
     2.368472          9.05
     2.310214         13.66
     2.301654         15.35
     2.256055        272.76
     2.231037          1.84
     2.109609          2.93
     2.081682          0.13
     2.004117          3.30
     1.975662        306.42
     1.952668          7.21
     1.919634         84.36
     1.878089         43.03
     1.826975        293.82
     1.757166         41.45
     1.745912          1.48
     1.737892         48.46
     1.718624         36.29
     1.699389         18.95
     1.688619          0.20
     1.670363         18.73
     1.633041          1.29
     1.621013         31.40
     1.583573         45.49
     1.575320         31.81
     1.557821         35.35
     1.555188         50.05
     1.532849        144.69
     1.493235          0.25
     1.490916        160.09
     1.481746         46.78
     1.446605         17.42
     1.433019         21.35
     1.430969         22.90
     1.419808         19.11
     1.408567          1.03
     1.402750         27.28
     1.382266         27.35
     1.381063          6.63
     1.380426          0.15
     1.373138         10.80
     1.350157          3.07
     1.341355         70.32
     1.334090          1.37
     1.323411         17.64
     1.314293          1.11
     1.309564         19.83
     1.292851          0.15
     1.273615         10.61
     1.266464          2.07
     1.262231          0.23
     1.251804          1.08
     1.244312         47.15
     1.240065          2.66
     1.217983         19.70
     1.217546         11.58
     1.212537          0.14
     1.202652          1.62
     1.196626          0.29
     1.193053         19.52
     1.190484         15.78
     1.185956          0.44
     1.185397          0.00
     1.184236          7.51
     1.171444          5.94
     1.156185          0.00
     1.155107         20.84
     1.150827         21.81
     1.142366         30.06
     1.134129          0.07
     1.128027          4.93
     1.127547         31.33
     1.126853          0.14
     1.126547          7.63
     1.121077          1.95
     1.117969          0.01
     1.115518         12.88
     1.112622          9.02
     1.102318         13.25
     1.101384          0.37
     1.097672          1.22
     1.085826          4.19
     1.077835         11.15
     1.077415          6.56
     1.076810          0.99
     1.071767          0.44
     1.055340          0.91
     1.054805         12.38
     1.044800         15.32
     1.042008          0.20
     1.040841          8.98
     1.038487          0.00
     1.036792          4.18
     1.032657          2.59
     1.028439          2.10
     1.021900          0.68
     1.013423          0.87
     1.013172          0.06
     1.010280          0.08
##############################################################################
###                            Comments                                    ###
##############################################################################
###   Diffraction pattern calculated by Match!. 
###   I/Ic calculated by Match!. 
##############################################################################


