##############################################################################
###               Crystal structure data exported by Match!                ###
##############################################################################
###                           Data published by:                           ###
###                                                                        ###
###               COD (Crystallography Open Database)
##############################################################################
data_9007603
_citation_journal_full    'Acta Crystallographica, Section B'
_citation_journal_volume  '31'
_citation_page_first  '183'
_citation_page_last   '187'
_citation_year  '1975'
_citation_title  'The crystal structure of paratacamite, Cu2(OH)3ClSample: Substructure, can be considered as the average structure'
loop_
_publ_author_name
  'Fleet M. E.'
_chemical_formula_sum  'Cl Cu2 H3 O3'
_chemical_name_mineral  'Paratacamite'
_symmetry_space_group_name_H-M 'R -3'
_space_group_IT_number 148
_space_group_crystal_system 'trigonal (hexagonal axes)'
loop_
_symmetry_equiv_pos_as_xyz
   'x, y, z'
   'x+0.66667, y+0.33333, z+0.33333'
   'x+0.33333, y+0.66667, z+0.66667'
   '-y, x-y, z'
   '-y+0.66667, x-y+0.33333, z+0.33333'
   '-y+0.33333, x-y+0.66667, z+0.66667'
   '-x+y, -x, z'
   '-x+y+0.66667, -x+0.33333, z+0.33333'
   '-x+y+0.33333, -x+0.66667, z+0.66667'
   '-x, -y, -z'
   '-x+0.66667, -y+0.33333, -z+0.33333'
   '-x+0.33333, -y+0.66667, -z+0.66667'
   'y, -x+y, -z'
   'y+0.66667, -x+y+0.33333, -z+0.33333'
   'y+0.33333, -x+y+0.66667, -z+0.66667'
   'x-y, x, -z'
   'x-y+0.66667, x+0.33333, -z+0.33333'
   'x-y+0.33333, x+0.66667, -z+0.66667'
_cell_length_a        6.82700
_cell_length_b        6.82700
_cell_length_c       14.04100
_cell_angle_alpha    90.0000
_cell_angle_beta     90.0000
_cell_angle_gamma   120.0000
loop_
_atom_site_label
_atom_site_fract_x
_atom_site_fract_y
_atom_site_fract_z
_atom_site_occupancy
_atom_site_B_iso_or_equiv
cu      0.000   0.000   0.500    1.00000    0.845
cu      0.500   0.000   0.000    1.00000    1.041
o      0.206   0.794   0.061    1.00000    1.526
cl      0.000   0.000   0.194    1.00000    1.210
h      0.140   0.280   0.120    1.00000    1.000
_cell_measurement_wavelength    1.541874
_cell_measurement_radiation   'x-rays'
_exptl_crystal_density_diffrn    3.754000
loop_
_pd_peak_d_spacing
_pd_peak_intensity
     5.448987       1000.00
     4.680333        135.86
     4.522314         26.04
     3.413500         49.28
     3.018352         19.22
     2.892760        232.98
     2.757921        756.78
     2.724493        168.81
     2.536612          5.33
     2.340167        110.70
     2.261157        605.01
     2.206885         42.94
     2.129390          1.20
     2.036002         98.45
     1.970785          1.67
     1.930140         11.66
     1.899516         93.96
     1.885086          1.62
     1.816329        218.37
     1.748585         36.12
     1.706750        260.33
     1.682553          3.99
     1.659830         33.22
     1.628723         52.55
     1.603462         22.46
     1.596813         14.12
     1.560111          1.80
     1.509176         65.57
     1.507438         13.14
     1.492713         99.18
     1.485680          0.83
     1.469966         30.83
     1.446380         42.44
     1.418936         29.92
     1.416050         10.25
     1.380291         16.50
     1.378961        129.14
     1.366105          5.95
     1.362247         70.86
     1.350102         36.03
     1.331759          1.51
     1.307971         19.39
     1.290182          5.07
     1.269552         27.17
     1.268306         59.20
     1.265217          1.79
     1.247707          7.20
     1.243790         77.30
     1.223227         12.11
     1.221377          0.43
     1.198208          1.51
     1.189919          3.55
     1.188893          0.80
     1.178300          1.43
     1.171876         20.13
     1.170083          7.13
     1.166047          0.00
     1.151523          8.75
     1.137833          4.99
     1.130579         13.75
     1.129847          2.48
     1.123607         20.00
     1.120599          0.09
     1.113809         12.79
     1.108379          6.99
     1.106861          0.44
     1.105630         19.92
     1.103443         31.10
     1.089797          2.63
     1.073243          0.51
     1.066534          3.01
     1.064695         40.15
     1.062493          8.90
     1.058867          7.16
     1.049948          3.43
     1.038172         23.97
     1.023287          0.03
     1.018645         13.09
     1.018001         24.60
     1.016401          1.03
     1.014486          0.08
     1.007256          2.82
##############################################################################
###                            Comments                                    ###
##############################################################################
###   Diffraction pattern calculated by Match!. 
###   I/Ic calculated by Match!. 
##############################################################################


