##############################################################################
###               Crystal structure data exported by Match!                ###
##############################################################################
###                           Data published by:                           ###
###                                                                        ###
###               COD (Crystallography Open Database)
##############################################################################
data_9010314
_citation_journal_full    'American Mineralogist'
_citation_journal_volume  '92'
_citation_page_first  '1464'
_citation_page_last   '1473'
_citation_year  '2007'
_citation_title  'Jarosite - hydronium jarosite solid solution series withfull iron occupancy: Mineralogy and crystal chemistryLocality: syntheticSample: H'
loop_
_publ_author_name
  'Basciano L. C.'
  'Peterson R. C.'
_chemical_formula_sum  'Fe3 H6.14 K0.86 O14 S2'
_chemical_name_mineral  'Jarosite'
_symmetry_space_group_name_H-M 'R -3 m'
_space_group_IT_number 166
_space_group_crystal_system 'trigonal (hexagonal axes)'
loop_
_symmetry_equiv_pos_as_xyz
   'x, y, z'
   'x+0.66667, y+0.33333, z+0.33333'
   'x+0.33333, y+0.66667, z+0.66667'
   '-y, x-y, z'
   '-y+0.66667, x-y+0.33333, z+0.33333'
   '-y+0.33333, x-y+0.66667, z+0.66667'
   '-x+y, -x, z'
   '-x+y+0.66667, -x+0.33333, z+0.33333'
   '-x+y+0.33333, -x+0.66667, z+0.66667'
   'x-y, -y, -z'
   'x-y+0.66667, -y+0.33333, -z+0.33333'
   'x-y+0.33333, -y+0.66667, -z+0.66667'
   '-x, -x+y, -z'
   '-x+0.66667, -x+y+0.33333, -z+0.33333'
   '-x+0.33333, -x+y+0.66667, -z+0.66667'
   'y, x, -z'
   'y+0.66667, x+0.33333, -z+0.33333'
   'y+0.33333, x+0.66667, -z+0.66667'
   '-x, -y, -z'
   '-x+0.66667, -y+0.33333, -z+0.33333'
   '-x+0.33333, -y+0.66667, -z+0.66667'
   'y, -x+y, -z'
   'y+0.66667, -x+y+0.33333, -z+0.33333'
   'y+0.33333, -x+y+0.66667, -z+0.66667'
   'x-y, x, -z'
   'x-y+0.66667, x+0.33333, -z+0.33333'
   'x-y+0.33333, x+0.66667, -z+0.66667'
   '-x+y, y, z'
   '-x+y+0.66667, y+0.33333, z+0.33333'
   '-x+y+0.33333, y+0.66667, z+0.66667'
   'x, x-y, z'
   'x+0.66667, x-y+0.33333, z+0.33333'
   'x+0.33333, x-y+0.66667, z+0.66667'
   '-y, -x, z'
   '-y+0.66667, -x+0.33333, z+0.33333'
   '-y+0.33333, -x+0.66667, z+0.66667'
_cell_length_a        7.30700
_cell_length_b        7.30700
_cell_length_c       17.19160
_cell_angle_alpha    90.0000
_cell_angle_beta     90.0000
_cell_angle_gamma   120.0000
loop_
_atom_site_label
_atom_site_fract_x
_atom_site_fract_y
_atom_site_fract_z
_atom_site_occupancy
_atom_site_B_iso_or_equiv
k      0.000   0.000   0.000    0.86000    1.399
o      0.000   0.000   0.000    0.14000    1.399
fe      0.167   -0.167   -0.167    1.00000    1.299
s      0.000   0.000   0.308    1.00000    1.800
o      0.000   0.000   0.395    1.00000    3.899
o      0.221   -0.221   -0.055    1.00000    2.100
o      0.125   -0.125   0.135    1.00000    0.700
h      0.185   -0.185   0.125    1.00000    1.999
_cell_measurement_wavelength    1.541874
_cell_measurement_radiation   'x-rays'
_exptl_crystal_density_diffrn    3.105000
loop_
_pd_peak_d_spacing
_pd_peak_intensity
     5.938519        324.35
     5.730534        277.01
     5.096045        602.86
     3.653500         90.19
     3.555398         30.64
     3.111761        667.32
     3.080661       1000.00
     3.021160          8.96
     2.969259        133.14
     2.865267        198.52
     2.548023        233.30
     2.368961         23.66
     2.328244         11.30
     2.304240         16.68
     2.289557        322.27
     2.254612          1.19
     2.109349          3.46
     2.089952          0.00
     2.034821          2.54
     1.979506        309.24
     1.963449          7.60
     1.940078         92.74
     1.910178         49.60
     1.826750        307.89
     1.777699         52.57
     1.746010          5.47
     1.740459         51.99
     1.719606         36.51
     1.713478         25.83
     1.698682          0.06
     1.692773         24.30
     1.659027          0.39
     1.624830         23.58
     1.598514         41.04
     1.575356         38.72
     1.563208         40.24
     1.555881         61.06
     1.540331        159.73
     1.517283          1.33
     1.510580        191.35
     1.484630         61.22
     1.446605         20.04
     1.437182         26.23
     1.432633          2.23
     1.431481         23.40
     1.427940         28.06
     1.415891         31.83
     1.401250         28.05
     1.395965          0.09
     1.380893          5.00
     1.375408          6.85
     1.359336          4.26
     1.342467         73.14
     1.337425          0.40
     1.333757          1.69
     1.329968         20.90
     1.320216         27.86
     1.308323          1.26
     1.294467         13.63
     1.274011          6.02
     1.262194          0.18
     1.252110          0.96
     1.249739         57.04
     1.243963          1.19
     1.228134          9.66
     1.220145          4.21
     1.217833         16.85
     1.214066          0.23
     1.205484          0.04
     1.202969          0.33
     1.193006         22.04
     1.191230         15.56
     1.187704          0.01
     1.185133          7.49
     1.184480         14.62
     1.167181          1.05
     1.164122         28.65
     1.157311         31.39
     1.152120         33.94
     1.146107          0.44
     1.144778          9.14
     1.134075          1.06
     1.129518         36.77
     1.127306         19.26
     1.126744          7.23
     1.125015          2.51
     1.120796          0.01
     1.119094         11.52
     1.111823         13.59
     1.109177          0.02
     1.098781          1.28
     1.093561          1.49
     1.092407          7.62
     1.090535          3.67
     1.079123          9.12
     1.075195          1.55
     1.063661          0.01
     1.059313          0.01
     1.056175         15.62
     1.054675         14.67
     1.044976         16.62
     1.038425          0.87
     1.037254          5.72
     1.032788          2.27
     1.031456          4.05
     1.026887          1.06
     1.019209          0.09
     1.017410         21.26
     1.014629          1.29
     1.013299          0.23
     1.011125          0.02
     1.007053          0.58
##############################################################################
###                            Comments                                    ###
##############################################################################
###   Diffraction pattern calculated by Match!. 
###   I/Ic calculated by Match!. 
##############################################################################


