##############################################################################
###               Crystal structure data exported by Match!                ###
##############################################################################
###                           Data published by:                           ###
###                                                                        ###
###               COD (Crystallography Open Database)
##############################################################################
data_1532513
_citation_journal_full    'Zeitschrift fuer Anorganische und Allgemeine Chemie'
_citation_journal_volume  '629'
_citation_page_first  '1737'
_citation_page_last   '1750'
_citation_year  '2003'
_citation_title  'Theoretical investigation of the solid state reaction of silicon nitrideand silicon dioxide forming silicon oxynitride (Si2 N2 O) under pressure'
loop_
_publ_author_name
  'Kroll P.'
  'Milko M.'
_chemical_formula_sum  'O2 Si'
_chemical_name_common  'Silica'
_symmetry_space_group_name_H-M 'C 1 2/c 1'
_space_group_IT_number 15
_space_group_crystal_system 'monoclinic'
loop_
_symmetry_equiv_pos_as_xyz
   'x, y, z'
   'x+0.5, y+0.5, z'
   '-x, y, -z+0.5'
   '-x+0.5, y+0.5, -z+0.5'
   '-x, -y, -z'
   '-x+0.5, -y+0.5, -z'
   'x, -y, z+0.5'
   'x+0.5, -y+0.5, z+0.5'
_cell_length_a        7.09280
_cell_length_b       12.35020
_cell_length_c        7.16620
_cell_angle_alpha    90.0000
_cell_angle_beta    120.1700
_cell_angle_gamma    90.0000
_cell_formula_units_Z 16
loop_
_atom_site_label
_atom_site_fract_x
_atom_site_fract_y
_atom_site_fract_z
_atom_site_occupancy
_atom_site_B_iso_or_equiv
o      0.000   0.000   0.000    1.00000    1.000
o      0.309   0.104   0.328    1.00000    1.000
o      0.020   0.212   0.478    1.00000    1.000
si      0.505   0.158   0.540    1.00000    1.000
o      0.268   0.124   0.942    1.00000    1.000
o      0.500   0.116   0.750    1.00000    1.000
si      0.139   0.109   0.073    1.00000    1.000
_cell_measurement_wavelength    1.541874
_cell_measurement_radiation   'x-rays'
_exptl_crystal_density_diffrn    2.941000
loop_
_pd_peak_d_spacing
_pd_peak_intensity
     6.175100         60.88
     5.526110          4.79
     5.492270          4.48
     4.373633         56.41
     3.441184         61.76
     3.426028        128.58
     3.417919        392.37
     3.416707        681.38
     3.097726        864.67
     3.089599        974.68
     3.087550       1000.00
     3.075226        842.08
     3.065998        167.60
     2.768863         78.86
     2.763402         60.81
     2.763055         18.62
     2.746135        136.63
     2.702737         90.55
     2.690829        308.21
     2.328631         86.06
     2.304776         34.88
     2.293584          3.32
     2.292486         62.93
     2.291146         28.17
     2.285901         12.05
     2.278683         46.21
     2.190889         22.79
     2.186817         23.82
     2.183952         34.68
     2.175568         58.60
     2.174058          1.16
     2.058367          0.17
     2.038259         23.55
     2.033648          0.46
     2.031672          7.87
     2.029744          8.00
     2.028560         88.95
     2.025169         22.52
     2.020145          0.86
     2.016567         24.39
     1.958528          2.38
     1.953379          0.69
     1.866608          7.77
     1.856166         13.78
     1.842037         67.31
     1.830757         91.51
     1.791542        165.40
     1.780217        107.48
     1.777738          0.07
     1.773130          1.13
     1.720592          0.62
     1.716567         29.29
     1.714396         45.48
     1.713014          8.38
     1.708959        105.13
     1.708354         30.22
     1.704577          5.96
     1.704263         28.84
     1.701864          7.85
     1.701030          7.35
     1.697603        119.33
     1.696515         17.26
     1.696071          2.17
     1.695528         59.62
     1.693399          0.14
     1.690458          3.28
     1.687095          5.06
     1.646828        165.36
     1.639644          7.99
     1.587872         12.81
     1.585679          2.92
     1.582832         34.62
     1.582231         50.36
     1.581900          1.15
     1.580430         38.97
     1.574739         32.04
     1.573712          9.45
     1.549573         37.24
     1.548863         19.53
     1.546477          0.57
     1.544800         40.76
     1.543775         44.84
     1.540615         73.93
     1.540523          4.22
     1.537613         33.37
     1.532999         34.34
     1.502326          5.26
     1.498617          0.38
     1.497971         24.31
     1.495037          5.06
     1.489656          0.32
     1.487836         13.88
     1.457878          0.86
     1.415469         17.16
     1.413697         10.83
     1.412077          0.10
     1.410534          0.43
     1.410059         11.57
     1.408105         23.14
     1.407230         12.99
     1.405703          6.38
     1.404020          1.33
     1.402091          1.31
     1.401840         29.95
     1.401603         13.05
     1.398825         16.70
     1.387621          0.06
     1.384432          0.77
     1.381701          4.54
     1.381527          3.81
     1.380977          1.19
     1.379049          2.11
     1.378850          5.94
     1.373067          0.01
     1.351368          0.74
     1.345732        100.76
     1.345414         53.63
     1.344962         13.78
     1.343414         73.63
     1.341315         12.54
     1.339944         37.69
     1.339609          0.32
     1.339123         59.34
     1.337358         26.60
     1.335583         23.51
     1.334740         34.63
     1.334535          2.17
     1.332137         41.85
     1.330156          5.38
     1.320013         68.50
     1.314738         58.67
     1.311074         10.13
     1.308981         39.19
     1.293128          6.42
     1.289164         17.99
     1.286182          3.07
     1.286040         35.54
     1.285709          6.94
     1.282183         11.83
     1.281480         73.11
     1.280204          3.64
     1.278726         38.50
     1.272425          0.00
     1.237889          0.03
     1.237621         10.99
     1.236481         38.15
     1.235544          3.78
     1.235020          7.91
     1.233052          4.87
     1.231977         13.16
     1.230952          0.78
     1.229698         17.07
     1.229482         34.32
     1.229336          7.47
     1.228777          0.01
     1.225328          0.41
     1.225161         35.83
     1.225003          1.50
     1.223147         12.47
     1.220397         18.83
     1.214874         11.89
     1.211190          0.31
     1.188815         31.72
     1.187174         22.06
     1.184491          0.24
     1.184138         27.95
     1.183655          1.41
     1.182813         41.86
     1.181905         30.69
     1.181413         24.20
     1.180904          0.76
     1.179739          1.21
     1.176439          0.06
     1.175353         29.18
     1.172995          5.25
     1.171668          2.37
     1.171097          0.00
     1.169483          9.84
     1.166516          2.10
     1.166315          1.41
     1.165930          0.03
     1.165618         16.41
     1.164316          6.53
     1.163046          0.01
     1.161388         15.17
     1.161006         17.17
     1.159244          4.15
     1.152388          0.00
     1.151130          0.26
     1.149943          3.94
     1.147206          0.07
     1.147061          4.50
     1.146792          2.65
     1.146243          1.85
     1.145573          6.44
     1.145499          0.00
     1.143073          1.55
     1.142950          2.17
     1.142009          0.45
     1.141377          2.47
     1.139341          2.04
     1.139306          6.26
     1.138902         13.90
     1.129595         33.81
     1.122659          7.21
     1.109533          0.68
     1.107655         16.63
     1.107291          0.39
     1.106505         10.43
     1.105222          6.52
     1.104659          2.99
     1.104386          0.78
     1.103945          3.31
     1.101924          7.86
     1.101809          3.03
     1.100458         11.55
     1.098454         15.91
     1.097797          0.65
     1.096528          0.32
     1.095444          0.00
     1.093408          0.00
     1.092568          7.42
     1.091976          0.51
     1.091231          2.98
     1.090462          1.51
     1.090292         12.28
     1.088388          3.60
     1.087784          0.09
     1.087029          0.88
     1.085271          0.24
     1.084050         14.64
     1.075359          1.77
     1.075255         17.50
     1.074040          9.00
     1.073317          2.48
     1.072939         17.73
     1.072601          0.00
     1.072261         19.16
     1.071791          1.46
     1.071380          1.86
     1.071193          0.12
     1.070634          7.22
     1.069769          6.48
     1.068538          0.24
     1.068526          0.41
     1.066071          0.50
     1.064664          2.33
     1.061584          4.21
     1.059942          4.97
     1.046722         21.07
     1.043028          4.15
     1.042626          0.01
     1.037164          0.34
     1.032575          0.80
     1.029866          0.02
     1.029183          0.22
     1.025075          4.70
     1.021999         17.10
     1.019129          0.25
     1.018435          0.26
     1.018259          0.01
     1.016980         13.79
     1.016824          3.86
     1.016772          3.22
     1.015836          0.00
     1.015527          6.34
     1.015270          4.53
     1.014872          5.29
     1.014280         11.66
     1.013807          2.07
     1.013422         19.47
     1.013204          6.36
     1.012741          2.76
     1.012584         19.16
     1.012218          5.95
     1.011704          2.00
     1.011691          0.05
     1.011490          6.69
     1.011124          0.29
     1.010496          0.35
     1.010072         12.23
     1.010027          2.28
     1.008283          0.56
     1.007210          0.52
     1.007012          8.82
     1.006506          1.82
##############################################################################
###                            Comments                                    ###
##############################################################################
###   Diffraction pattern calculated by Match!. 
###   I/Ic calculated by Match!. 
###   Space group has been derived from given symmetry operations. 
##############################################################################


