##############################################################################
###               Crystal structure data exported by Match!                ###
##############################################################################

data_1535479
_citation_journal_full    'Bulletin de la Societe Royal des Sciences de Liege'
_citation_journal_volume  '11'
_citation_page_first  '555'
_citation_page_last   '566'
_citation_year  '1942'
_citation_title  'Structure cristalline de L'atacamite'
loop_
_publ_author_name
  'Brasseur H.'
  'Toussaint J.'
_chemical_formula_sum  'Cl2 Cu4 H6 O6'
_chemical_name_common  'Cu Cl2 (Cu (O H)2)3'
_symmetry_space_group_name_H-M 'P n a m'
_space_group_IT_number 62
_space_group_crystal_system 'orthorhombic'
loop_
_symmetry_equiv_pos_as_xyz
   'x, y, z'
   '-x, -y, z+0.5'
   'x+0.5, -y+0.5, -z+0.5'
   '-x+0.5, y+0.5, -z'
   '-x, -y, -z'
   'x, y, -z+0.5'
   '-x+0.5, y+0.5, z+0.5'
   'x+0.5, -y+0.5, z'
_cell_length_a        6.01000
_cell_length_b        9.13000
_cell_length_c        6.84000
_cell_angle_alpha    90.0000
_cell_angle_beta     90.0000
_cell_angle_gamma    90.0000
_cell_formula_units_Z 2
loop_
_atom_site_label
_atom_site_fract_x
_atom_site_fract_y
_atom_site_fract_z
_atom_site_occupancy
_atom_site_B_iso_or_equiv
o      0.435   0.250   0.000    1.00000    1.000
cl      0.333   0.044   0.750    1.00000    1.000
cu      0.185   0.250   0.250    1.00000    1.000
o      0.250   0.000   0.250    1.00000    1.000
cu      0.000   0.000   0.000    1.00000    1.000
_cell_measurement_wavelength    1.541874
_cell_measurement_radiation   'x-rays'
_exptl_crystal_density_diffrn    3.726000
loop_
_pd_peak_d_spacing
_pd_peak_intensity
     5.474158       1000.00
     5.019993        610.41
     4.565000         19.95
     4.047021         52.68
     3.635238         31.63
     3.420000         17.52
     3.210046         14.47
     3.005000          3.14
     2.854368         16.13
     2.826411        815.09
     2.780530        476.26
     2.751203        334.43
     2.737079        161.53
     2.715078        158.37
     2.634204        160.04
     2.523539          1.32
     2.509996        148.52
     2.490923         19.30
     2.356354         38.80
     2.282500        582.53
     2.257399        813.22
     2.212067         92.05
     2.191409        213.89
     2.138280         56.11
     2.133797         16.13
     2.126451        294.52
     2.075918          6.94
     2.040879        141.60
     2.036980          8.96
     2.023510         36.00
     1.956781        175.76
     1.931529          2.53
     1.898514          0.00
     1.881310          6.44
     1.834461          0.00
     1.824719        116.46
     1.817619          5.05
     1.816356         81.82
     1.813072        224.42
     1.810337         17.29
     1.781444         44.17
     1.771843          7.30
     1.764217         15.38
     1.756654         92.04
     1.747140         48.99
     1.746018          0.57
     1.710000        238.73
     1.698428         27.73
     1.692790          1.58
     1.687671         13.21
     1.673331         79.93
     1.625399          3.29
     1.618666         47.27
     1.616584          0.00
     1.605023        398.83
     1.601339          1.65
     1.560488          0.03
     1.559689         51.29
     1.557946          3.15
     1.555872         74.39
     1.547355          3.20
     1.521667          0.90
     1.521397         12.38
     1.505651          0.00
     1.503064         26.90
     1.502500         11.22
     1.486215          0.59
     1.484896          2.09
     1.482559         45.32
     1.475120          4.75
     1.470447         10.05
     1.467512         53.85
     1.466907          5.87
     1.448914          0.00
     1.446936         35.39
     1.441968          2.87
     1.429269          3.10
     1.427184         27.59
     1.425256          6.51
     1.421260         39.32
     1.419685         16.64
     1.413205         47.84
     1.397096         17.75
     1.390265         46.20
     1.386794          0.52
     1.378019          0.00
     1.375602         24.18
     1.368539        154.62
     1.360249          9.95
     1.357539         30.58
     1.354497          6.77
     1.352898         14.27
     1.349524         22.37
     1.349007          1.29
     1.347254         52.99
     1.335476         21.17
     1.334381          5.14
     1.331567         20.82
     1.324001          1.19
     1.321856          1.99
     1.319870          1.69
     1.317102         32.52
     1.287754          5.98
     1.287618         66.73
     1.281201         32.08
     1.280343          0.50
     1.274616         17.41
     1.261770          1.44
     1.256415          5.42
     1.255327         22.71
     1.254998         13.43
     1.254582         28.09
     1.253499         24.85
     1.253045          3.08
     1.250840          0.00
     1.247739         25.08
     1.245461          1.95
     1.245055         17.85
     1.242903          0.00
     1.238510          1.58
     1.234393         36.52
     1.233637          9.73
     1.222072         22.40
     1.221688          0.30
     1.211746          0.00
     1.209729          9.32
     1.201180          2.99
     1.196447          8.59
     1.195977         40.38
     1.194363         18.60
     1.193167          5.57
     1.191717          6.32
     1.178553         18.02
     1.178177         20.08
     1.174031          7.41
     1.166434         11.99
     1.162381          0.52
     1.161339          0.63
     1.160219          8.43
     1.159891          1.21
     1.152672          0.03
     1.152349         14.78
     1.151646          0.99
     1.145951          0.35
     1.143880          0.63
     1.142173          0.00
     1.141250         23.12
     1.140000          0.51
     1.136758          0.45
     1.132131         19.73
     1.130034          0.00
     1.129333         35.01
     1.128700          6.31
     1.125353         27.66
     1.121214          1.10
     1.121179          0.52
     1.120172         26.16
     1.117961          5.86
     1.116953          3.37
     1.112564          1.89
     1.111695         26.24
     1.106448          0.70
     1.106034          8.95
     1.103321          3.69
     1.100552          0.88
     1.099446         23.33
     1.098717          0.71
     1.096647          1.18
     1.095705         17.43
     1.094832          1.95
     1.093041          5.29
     1.093017         13.71
     1.087767          0.87
     1.082566          1.79
     1.079347          0.46
     1.077105          0.12
     1.070015          3.96
     1.069140         12.06
     1.066898          2.10
     1.065877         40.46
     1.065420          1.91
     1.063540          1.16
     1.063225         24.35
     1.062627         20.06
     1.059437         12.36
     1.059362         17.21
     1.059111          0.41
     1.058687         10.48
     1.058262         40.05
     1.056314         15.24
     1.056149          5.18
     1.054152          2.96
     1.051106         19.26
     1.050912          0.79
     1.041159         19.05
     1.037959          3.05
     1.035567          0.26
     1.034038          0.49
     1.028684          2.34
     1.021950         15.32
     1.020440          7.45
     1.019870          0.03
     1.018490         47.25
     1.015567          2.09
     1.012497          2.81
     1.011755         11.70
     1.011537         13.27
##############################################################################
###                            Comments                                    ###
##############################################################################
###   Diffraction pattern calculated by Match!. 
###   I/Ic calculated by Match!. 
###   Space group has been derived from given symmetry operations. 
##############################################################################


