##############################################################################
###               Crystal structure data exported by Match!                ###
##############################################################################
###                           Data published by:                           ###
###                                                                        ###
###               COD (Crystallography Open Database)
##############################################################################
data_9008226
_citation_journal_full    'Zeitschrift fur Kristallographie'
_citation_journal_volume  '138'
_citation_page_first  '274'
_citation_page_last   '298'
_citation_year  '1973'
_citation_title  'High-temperature single-crystal study of the cristobalite inversionNote: Cell has been correctedSample: T = 103 CLocality: Ellora Caves, Hyderabad State, India'
loop_
_publ_author_name
  'Peacor D. R.'
_chemical_formula_sum  'O2 Si'
_chemical_name_mineral  'Cristobalite'
_symmetry_space_group_name_H-M 'P 41 21 2'
_space_group_IT_number 92
_space_group_crystal_system 'tetragonal'
loop_
_symmetry_equiv_pos_as_xyz
   'x, y, z'
   '-y+0.5, x+0.5, z+0.25'
   '-x, -y, z+0.5'
   'y+0.5, -x+0.5, z+0.75'
   'x+0.5, -y+0.5, -z+0.75'
   '-x+0.5, y+0.5, -z+0.25'
   'y, x, -z'
   '-y, -x, -z+0.5'
_cell_length_a        4.98600
_cell_length_b        4.98600
_cell_length_c        6.97700
_cell_angle_alpha    90.0000
_cell_angle_beta     90.0000
_cell_angle_gamma    90.0000
loop_
_atom_site_label
_atom_site_fract_x
_atom_site_fract_y
_atom_site_fract_z
_atom_site_occupancy
_atom_site_B_iso_or_equiv
si      0.299   0.299   0.000    1.00000    0.933
o      0.241   0.102   0.177    1.00000    1.968
_cell_measurement_wavelength    1.541874
_cell_measurement_radiation   'x-rays'
_cell_measurement_temperature    376.100000
_exptl_crystal_density_diffrn    2.301000
loop_
_pd_peak_d_spacing
_pd_peak_intensity
     4.056607       1000.00
     3.525634          5.70
     3.146696         85.20
     2.858348        103.44
     2.493000        136.51
     2.479767         47.40
     2.347633          0.72
     2.123972         26.72
     2.107664          1.63
     2.028304         25.87
     1.941340         48.25
     1.878795         50.68
     1.762817          4.61
     1.744250          7.80
     1.709108          0.80
     1.700576         24.87
     1.646412          4.69
     1.616762         40.22
     1.609534         14.33
     1.576712          3.69
     1.573348          2.87
     1.563384          0.24
     1.537930         25.32
     1.500419         27.48
     1.436774         24.04
     1.429174         14.71
     1.404852         14.21
     1.382868          0.01
     1.373850         23.98
     1.356480         10.15
     1.352202          5.70
     1.343768         17.84
     1.305061         21.39
     1.297473          0.30
     1.285547         21.50
     1.246500          1.19
     1.239883          8.14
     1.227071         11.43
     1.217636          1.79
     1.209283         15.36
     1.203238          0.04
     1.191518          2.15
     1.188616         13.74
     1.182875         15.09
     1.175211          2.90
     1.173817          2.94
     1.169662          7.31
     1.158886          4.44
     1.142581          2.14
     1.132444          0.02
     1.114904          0.06
     1.113712          5.56
     1.104318         16.40
     1.100936         10.56
     1.098645          4.02
     1.094107          2.17
     1.083626          3.68
     1.072908          1.54
     1.068680          0.23
     1.061986          5.17
     1.053832          0.18
     1.048899          2.79
     1.044947          3.50
     1.031054          0.18
     1.014152          0.87
##############################################################################
###                            Comments                                    ###
##############################################################################
###   Diffraction pattern calculated by Match!. 
###   I/Ic calculated by Match!. 
###   Space group has been derived from given symmetry operations. 
##############################################################################


