##############################################################################
###               Crystal structure data exported by Match!                ###
##############################################################################
###                           Data published by:                           ###
###                                                                        ###
###               COD (Crystallography Open Database)
##############################################################################
data_9012704
_citation_journal_full    'Journal of Solid State Chemistry'
_citation_journal_volume  '57'
_citation_page_first  '343'
_citation_page_last   '350'
_citation_year  '1985'
_citation_title  'Monoxyde quadratique PbO alpha(I): Description de la transition structuraleferroelastique Locality: synthetic Method: X-ray Diffraction T = 723 K'
loop_
_publ_author_name
  'Boher P.'
  'Garnier P.'
  'Gavarri J. R.'
  'Hewat A. W.'
_chemical_formula_sum  'O Pb'
_chemical_name_mineral  'Litharge'
_symmetry_space_group_name_H-M 'P 4/n m m'
_space_group_IT_number 129
_space_group_crystal_system 'tetragonal'
loop_
_symmetry_equiv_pos_as_xyz
   'x, y, z'
   '-x+0.5, -y+0.5, -z'
   '-y+0.5, x+0.5, z'
   '-x, -y, z'
   'y+0.5, -x+0.5, z'
   'y, -x, -z'
   '-y, x, -z'
   'x+0.5, -y+0.5, -z'
   '-x+0.5, y+0.5, -z'
   'y, x, -z'
   '-y, -x, -z'
   'x+0.5, y+0.5, -z'
   '-x, y, z'
   'x, -y, z'
   '-y+0.5, -x+0.5, z'
   'y+0.5, x+0.5, z'
_cell_length_a        4.00390
_cell_length_b        4.00390
_cell_length_c        5.07120
_cell_angle_alpha    90.0000
_cell_angle_beta     90.0000
_cell_angle_gamma    90.0000
loop_
_atom_site_label
_atom_site_fract_x
_atom_site_fract_y
_atom_site_fract_z
_atom_site_occupancy
_atom_site_B_iso_or_equiv
pb      0.000   0.500   0.234    1.00000    1.299
o      0.000   0.000   0.000    1.00000    1.699
_cell_measurement_wavelength    1.541874
_cell_measurement_radiation   'x-rays'
_cell_measurement_temperature    723.000000
_exptl_crystal_density_diffrn    9.118000
loop_
_pd_peak_d_spacing
_pd_peak_intensity
     5.071200         31.63
     3.142495       1000.00
     2.831185        319.50
     2.535600        112.09
     2.472029          0.29
     2.142172         13.90
     2.001950        153.10
     1.888827        241.03
     1.862104          6.15
     1.690400          2.13
     1.688437        292.82
     1.571248         95.54
     1.557299         99.59
     1.462654          7.23
     1.451382         10.99
     1.415592         42.48
     1.363467          1.64
     1.291559          3.36
     1.290683         52.46
     1.267800         11.59
     1.266144         44.23
     1.236014         38.62
     1.229190         79.72
     1.228435          0.24
     1.208656          6.61
     1.181021          1.58
     1.157085         26.46
     1.132770         68.70
     1.085298          1.89
     1.084778         56.01
     1.071086         25.20
     1.047498         23.21
     1.034703          7.95
     1.017206          1.99
     1.014240          1.70
     1.013392          5.70
##############################################################################
###                            Comments                                    ###
##############################################################################
###   Diffraction pattern calculated by Match!. 
###   I/Ic calculated by Match!. 
###   Space group has been derived from given symmetry operations. 
##############################################################################


