##############################################################################
###               Crystal structure data exported by Match!                ###
##############################################################################
###                           Data published by:                           ###
###                                                                        ###
###               COD (Crystallography Open Database)
##############################################################################
data_4513279
_citation_journal_full    'Design''
_citation_journal_volume  '15(8)'
_citation_page_first  '3950'
_citation_year  '2015'
_citation_title  'Cascade of High-Pressure Transitions of Claudetite II and the First PolarPhase of Arsenic(III) Oxide'
loop_
_publ_author_name
  'Gunka Piotr A.'
  'Dranka Maciej'
  'Hanfland Michael'
  'Dziubek Kamil F.'
  'Katrusiak Andrzej'
  'Zachara Janusz'
_chemical_formula_sum  'As2 O3'
_chemical_name_common  'Arsenic(III) trioxide'
_symmetry_space_group_name_H-M 'P 1 21/n 1'
_space_group_IT_number 14
_space_group_crystal_system 'monoclinic'
loop_
_symmetry_equiv_pos_as_xyz
   'x, y, z'
   '-x+0.5, y+0.5, -z+0.5'
   '-x, -y, -z'
   'x+0.5, -y+0.5, z+0.5'
_cell_length_a        7.96150
_cell_length_b        4.53586
_cell_length_c        8.91100
_cell_angle_alpha    90.0000
_cell_angle_beta    102.1550
_cell_angle_gamma    90.0000
_cell_formula_units_Z 4
loop_
_atom_site_label
_atom_site_fract_x
_atom_site_fract_y
_atom_site_fract_z
_atom_site_occupancy
_atom_site_B_iso_or_equiv
as      0.683   0.215   0.125    1.00000    1.223
as      0.385   0.176   0.304    1.00000    1.263
o      0.729   0.367   0.315    1.00000    2.526
o      0.465   0.152   0.130    1.00000    2.289
o      0.175   0.052   0.212    1.00000    2.052
_cell_measurement_wavelength    1.541874
_cell_measurement_radiation   'x-rays'
_cell_measurement_temperature    293.000000
_cell_measurement_pressure       740000.000000
_exptl_crystal_density_diffrn    4.177000
loop_
_pd_peak_d_spacing
_pd_peak_intensity
     6.526759         19.21
     5.277999         13.61
     4.355615        401.81
     4.023153         21.56
     3.918907         88.12
     3.891508        105.15
     3.724713         40.93
     3.440059       1000.00
     3.263380        299.92
     3.141674         67.00
     3.080176          9.89
     2.953486          3.69
     2.943802         25.32
     2.930113        182.01
     2.770874         53.96
     2.670339          1.38
     2.649020        187.44
     2.643324        180.67
     2.638999        106.97
     2.550377         39.88
     2.461236        116.11
     2.445546          1.66
     2.354496         45.34
     2.283816        107.77
     2.281025          1.73
     2.267930         97.37
     2.258936         21.98
     2.251999          1.60
     2.223065         70.36
     2.194769        110.69
     2.177807         31.74
     2.177372         19.05
     2.175586          0.24
     2.168670          0.03
     2.142281         22.26
     2.098008         11.63
     2.089731         74.05
     2.083708          2.38
     2.011576          7.57
     1.995564         12.24
     1.995150         28.20
     1.963243         53.28
     1.961616          0.88
     1.959454          9.50
     1.956618          8.12
     1.945754         21.81
     1.934719          2.46
     1.922703          0.03
     1.904181         37.17
     1.903255         18.06
     1.869719         16.83
     1.866119          0.05
     1.862357         34.40
     1.823307          0.67
     1.822489          2.31
     1.793467         22.68
     1.788171         87.31
     1.787369          0.07
     1.782035         76.34
     1.779594          0.98
     1.759333          1.44
     1.749903         45.22
     1.731643          0.46
     1.721225         55.46
     1.720029         44.49
     1.710499         21.48
     1.707481         19.12
     1.694766         15.06
     1.688473         12.73
     1.674113          8.26
     1.670291          5.80
     1.658621          2.74
     1.651744         44.61
     1.640269         21.10
     1.633415          1.36
     1.632620         21.58
     1.631690          2.88
     1.628639          4.77
     1.626396          5.31
     1.618024          0.69
     1.611957         48.24
     1.591455         15.63
     1.587247         33.54
     1.570837         21.46
     1.570003          5.15
     1.552041         11.99
     1.549838         31.28
     1.540088          0.48
     1.535368         72.53
     1.532825         10.03
     1.519741          3.80
     1.518893          4.12
     1.510751         48.38
     1.501704          5.39
     1.496348          0.12
     1.495895          5.17
     1.489682          1.18
     1.487552          1.20
     1.484207         28.14
     1.479344          5.47
     1.476743          7.40
     1.472948          1.30
     1.472318          2.37
     1.471901          2.97
     1.465057          0.88
     1.453491         18.59
     1.451872          2.75
     1.444421          5.41
     1.439545          3.90
     1.433338          1.04
     1.428344          7.71
     1.422428          3.47
     1.419081         25.10
     1.411049          0.57
     1.410523          0.50
     1.409320          1.79
     1.408264         17.43
     1.406433          7.83
     1.405981          2.55
     1.405535          0.52
     1.401220         23.42
     1.394138         12.34
     1.390102          1.50
     1.389480          5.74
     1.387970         44.16
     1.385437         19.53
     1.382762         58.18
     1.381627          2.57
     1.376484          7.25
     1.374802          3.16
     1.371867         10.67
     1.350938          1.40
     1.343621         10.31
     1.341051          0.90
     1.336571          1.51
     1.335169         19.64
     1.324510          1.02
     1.323156          5.52
     1.322877          0.50
     1.321662          0.03
     1.319500          0.00
     1.317459          5.49
     1.316726          0.24
     1.313890         15.48
     1.312426          4.42
     1.311896          1.75
     1.307652         19.35
     1.306302         14.33
     1.305352          1.39
     1.302716          4.20
     1.302480          5.39
     1.300582          5.09
     1.297169          1.63
     1.293445         16.22
     1.289422          4.77
     1.283392          0.00
     1.275189          0.44
     1.272228          8.42
     1.271294          0.00
     1.271215          4.22
     1.270215         34.17
     1.268893         36.26
     1.266979          0.57
     1.265441          1.32
     1.261512          1.83
     1.257328         24.16
     1.254439          3.35
     1.251889          8.39
     1.250046          9.81
     1.247171         19.36
     1.242202          2.97
     1.241983          0.37
     1.241571          3.02
     1.240629          2.52
     1.239049          8.77
     1.238741          6.23
     1.238435          5.15
     1.234589          0.06
     1.231526          2.42
     1.230618          0.35
     1.227598          0.09
     1.227410          1.13
     1.227340         11.78
     1.226617          5.25
     1.224123          0.12
     1.222773          0.74
     1.218895         32.90
     1.218614          1.07
     1.216262          0.72
     1.204171          3.14
     1.203935          0.67
     1.200946          0.40
     1.200601         12.32
     1.200112          1.31
     1.193883          3.90
     1.191320          0.15
     1.191251          0.18
     1.190482          8.39
     1.190395         17.08
     1.184735          9.50
     1.177248          0.69
     1.176917          3.36
     1.176609          1.10
     1.176394         11.34
     1.162790          7.55
     1.158068         13.64
     1.155179          0.05
     1.152903          0.04
     1.151404          1.18
     1.146686          0.85
     1.144063          3.20
     1.143599          0.38
     1.142871          2.46
     1.142275          0.66
     1.141915         15.90
     1.141908          1.13
     1.140512          0.32
     1.139494          1.24
     1.139007          0.11
     1.133965          0.11
     1.133287          4.47
     1.131339          0.70
     1.129832          1.83
     1.129468          6.08
     1.128999          0.14
     1.127936          0.01
     1.126000          1.28
     1.124478         12.95
     1.122118          0.15
     1.121178          0.07
     1.120571          1.26
     1.120083          1.11
     1.117228          3.18
     1.115264          0.01
     1.111532          0.40
     1.111090          4.05
     1.109029          7.27
     1.108950          0.55
     1.108666          0.53
     1.108070          1.44
     1.105059          2.40
     1.104850          3.84
     1.102772          0.53
     1.102120          0.75
     1.099489          0.48
     1.097384          0.51
     1.096141          2.70
     1.094694          1.30
     1.091632          0.00
     1.091005          0.07
     1.090600          0.00
     1.090422          2.80
     1.088904          0.02
     1.088686          1.33
     1.088199          3.93
     1.087793          7.50
     1.087419          0.73
     1.086376          1.57
     1.084554          0.59
     1.084335          0.49
     1.079889          0.13
     1.079414          4.58
     1.079184         11.00
     1.079081          0.15
     1.078754          0.88
     1.074855          7.07
     1.072536          1.90
     1.071252          6.43
     1.071141          0.71
     1.070081          0.09
     1.068687          0.21
     1.061430          7.07
     1.060216          5.69
     1.059352          1.31
     1.059113          0.21
     1.058820          0.67
     1.057799          3.86
     1.057533          0.03
     1.057395          0.03
     1.057360          2.13
     1.057203          1.25
     1.057013          0.36
     1.056919          0.14
     1.056278          0.19
     1.055600          0.22
     1.054025         11.16
     1.052140          2.23
     1.050133         13.52
     1.049004          1.51
     1.047225          5.16
     1.047008          1.65
     1.045891          1.01
     1.044865          0.10
     1.042120          0.55
     1.042027          1.96
     1.041854          0.80
     1.039908          1.28
     1.039725          2.49
     1.039046          6.08
     1.037401          1.56
     1.036756          0.23
     1.036160          2.56
     1.035933          1.47
     1.033509          2.26
     1.033195          0.60
     1.030490          5.59
     1.030218          0.49
     1.028125          1.71
     1.026725          2.85
     1.023711          8.57
     1.022028          0.95
     1.021650          2.98
     1.021591          0.05
     1.017986          9.03
     1.017647          0.15
     1.015826          0.35
     1.015572         12.65
     1.013764          5.40
     1.013611          1.45
     1.010056         10.04
##############################################################################
###                            Comments                                    ###
##############################################################################
###   Diffraction pattern calculated by Match!. 
###   I/Ic calculated by Match!. 
##############################################################################


