##############################################################################
###               Crystal structure data exported by Match!                ###
##############################################################################
###                           Data published by:                           ###
###                                                                        ###
###               COD (Crystallography Open Database)
##############################################################################
data_4124034
_citation_journal_full    'Journal of the American Chemical Society'
_citation_journal_volume  '126'
_citation_page_first  '9769'
_citation_page_last   '9775'
_citation_year  '2004'
_citation_title  'Chemical evaluation of hypothetical uninodal zeolites'
loop_
_publ_author_name
  'Foster M.D.'
  'Friedrichs O.D.'
  'Bell R.G.'
  'Paz F.A.A.'
  'Klinowski J.'
_chemical_formula_sum  'O2 Si'
_chemical_name_common  'Silica'
_symmetry_space_group_name_H-M 'P n -3 m'
_space_group_IT_number 224
_space_group_crystal_system 'cubic'
loop_
_symmetry_equiv_pos_as_xyz
   'x, y, z'
   '-x+0.5, -y+0.5, -z+0.5'
   '-y+0.5, x+0.5, z+0.5'
   '-x, -y, z'
   'y+0.5, -x+0.5, z+0.5'
   'x+0.5, -z+0.5, y+0.5'
   'x, -y, -z'
   'x+0.5, z+0.5, -y+0.5'
   'z+0.5, y+0.5, -x+0.5'
   '-x, y, -z'
   '-z+0.5, y+0.5, x+0.5'
   'y, -x, -z'
   '-y, x, -z'
   '-x, z, -y'
   '-x, -z, y'
   '-z, -y, x'
   'z, -y, -x'
   'z, x, y'
   'y, z, x'
   '-y, -z, x'
   'z, -x, -y'
   '-y, z, -x'
   '-z, -x, y'
   '-z, x, -y'
   'y, -z, -x'
   '-z+0.5, -x+0.5, -y+0.5'
   '-y+0.5, -z+0.5, -x+0.5'
   'y+0.5, z+0.5, -x+0.5'
   '-z+0.5, x+0.5, y+0.5'
   'y+0.5, -z+0.5, x+0.5'
   'z+0.5, x+0.5, -y+0.5'
   'z+0.5, -x+0.5, y+0.5'
   '-y+0.5, z+0.5, x+0.5'
   'y+0.5, x+0.5, -z+0.5'
   '-y+0.5, -x+0.5, -z+0.5'
   '-x+0.5, z+0.5, y+0.5'
   '-x+0.5, -z+0.5, -y+0.5'
   'z+0.5, -y+0.5, x+0.5'
   '-z+0.5, -y+0.5, -x+0.5'
   'x+0.5, y+0.5, -z+0.5'
   '-x+0.5, y+0.5, z+0.5'
   'x+0.5, -y+0.5, z+0.5'
   '-y, -x, z'
   'y, x, z'
   'x, -z, -y'
   'x, z, y'
   '-z, y, -x'
   'z, y, x'
_cell_length_a       12.17921
_cell_length_b       12.17921
_cell_length_c       12.17921
_cell_angle_alpha    90.0000
_cell_angle_beta     90.0000
_cell_angle_gamma    90.0000
_cell_formula_units_Z 48
loop_
_atom_site_label
_atom_site_fract_x
_atom_site_fract_y
_atom_site_fract_z
_atom_site_occupancy
_atom_site_B_iso_or_equiv
o      0.575   0.925   0.250    1.00000    1.000
o      0.055   0.641   0.055    1.00000    1.000
si      0.483   0.847   0.313    1.00000    1.000
o      0.628   0.128   0.250    1.00000    1.000
o      0.985   0.780   0.220    1.00000    1.000
_cell_measurement_wavelength    1.541874
_cell_measurement_radiation   'x-rays'
_exptl_crystal_density_diffrn    2.650000
loop_
_pd_peak_d_spacing
_pd_peak_intensity
     8.612002       1000.00
     7.031670        204.18
     6.089605         16.58
     4.972142          0.26
     4.306001        480.17
     4.059737         54.89
     3.851404        208.13
     3.672170         33.26
     3.515835        139.51
     3.255031        110.49
     3.044802         14.90
     2.953892         12.76
     2.870667        319.09
     2.794102          4.62
     2.723354         42.59
     2.657721         31.71
     2.596616         36.98
     2.486071         47.17
     2.388540        125.62
     2.343890         12.34
     2.261622          0.10
     2.223609         90.78
     2.153000         18.15
     2.120128         95.32
     2.088717         54.51
     2.058662          0.69
     2.029868         27.43
     1.975729          9.17
     1.925702          5.53
     1.902073         24.28
     1.879293          2.62
     1.857312         14.17
     1.836085          0.30
     1.815569          6.97
     1.795727          2.99
     1.757918         19.50
     1.739887          1.78
     1.722400         77.13
     1.705430         49.54
     1.688953          5.41
     1.672943         15.71
     1.657381         24.41
     1.627515         22.40
     1.613176         16.03
     1.599209         15.94
     1.585598         18.62
     1.559388          1.23
     1.546761         16.97
     1.522401          0.49
     1.510645          3.46
     1.499157         13.99
     1.487927          0.64
     1.476946         22.75
     1.466205          7.65
     1.455694         16.48
     1.435334         65.79
     1.425469          4.16
     1.415804         31.17
     1.406334          0.17
     1.397051          0.06
     1.387950          2.46
     1.379024          1.96
     1.361677          1.66
     1.353246         14.76
     1.344969         56.04
     1.336842         14.11
     1.328861         14.68
     1.313318         18.44
     1.298308          0.11
     1.290994          8.31
     1.283801         20.46
     1.276728          1.17
     1.262925          8.09
     1.256190         34.46
     1.243035          6.64
     1.236611          3.81
     1.230286         12.97
     1.224057         24.14
     1.217921          2.41
     1.211877         25.21
     1.205921         37.10
     1.194270         16.60
     1.188569          9.59
     1.182949         11.84
     1.177409          4.51
     1.171945          5.06
     1.166557          0.03
     1.161242          6.49
     1.145724         13.71
     1.140688          6.17
     1.135717          2.08
     1.130811          0.01
     1.125968          6.68
     1.121187          6.93
     1.111805          0.14
     1.107201         12.24
     1.102654          9.47
     1.098162          7.17
     1.089342          4.58
     1.085010         21.31
     1.076500          0.45
     1.072320          5.14
     1.068187          2.03
     1.064102          4.62
     1.060064          4.64
     1.056071          0.15
     1.052123          4.57
     1.044359          1.33
     1.040540          0.24
     1.036763          3.07
     1.033027          2.27
     1.029331          0.00
     1.025674          3.03
     1.022057          3.99
     1.014934          0.85
     1.011428          0.63
     1.007959          3.19
##############################################################################
###                            Comments                                    ###
##############################################################################
###   Diffraction pattern calculated by Match!. 
###   I/Ic calculated by Match!. 
###   Space group has been derived from given symmetry operations. 
##############################################################################


