##############################################################################
###               Crystal structure data exported by Match!                ###
##############################################################################
###                           Data published by:                           ###
###                                                                        ###
###               COD (Crystallography Open Database)
##############################################################################
data_2012913
_citation_journal_full    'Acta Crystallographica Section C'
_citation_journal_volume  '58(9)'
_citation_page_first  'i129'
_citation_page_last   'i131'
_citation_year  '2002'
_citation_title  'Hexaaquacobalt(II) bis(hypophosphite) and hexaaquacobalt(II)/nickel(II) bis(hypophosphite)'
loop_
_publ_author_name
  'Kuratieva Natalia V.'
  'Naumova Marina I.'
  'Naumov Dmitry Yu.'
_chemical_formula_sum  'Co H16 O10 P2'
_chemical_name_common  'hexaaquacobalt(II) hypophosphite'
_symmetry_space_group_name_H-M 'I 41/a c d'
_space_group_IT_number 142
_space_group_crystal_system 'tetragonal'
loop_
_symmetry_equiv_pos_as_xyz
   'x, y, z'
   'x+0.5, y+0.5, z+0.5'
   '-y+0.25, x+0.75, z+0.25'
   '-y+0.75, x+0.25, z+0.75'
   '-x, -y+0.5, z'
   '-x+0.5, -y, z+0.5'
   'y+0.25, -x+0.25, z+0.75'
   'y+0.75, -x+0.75, z+0.25'
   'x, -y, -z+0.5'
   'x+0.5, -y+0.5, -z'
   '-x+0.5, y, -z'
   '-x, y+0.5, -z+0.5'
   'y+0.75, x+0.25, -z+0.25'
   'y+0.25, x+0.75, -z+0.75'
   '-y+0.25, -x+0.25, -z+0.25'
   '-y+0.75, -x+0.75, -z+0.75'
   '-x, -y, -z'
   '-x+0.5, -y+0.5, -z+0.5'
   'y+0.25, -x+0.75, -z+0.25'
   'y+0.75, -x+0.25, -z+0.75'
   'x, y+0.5, -z'
   'x+0.5, y, -z+0.5'
   '-y+0.25, x+0.25, -z+0.75'
   '-y+0.75, x+0.75, -z+0.25'
   '-x, y, z+0.5'
   '-x+0.5, y+0.5, z'
   'x+0.5, -y, z'
   'x, -y+0.5, z+0.5'
   '-y+0.75, -x+0.25, z+0.25'
   '-y+0.25, -x+0.75, z+0.75'
   'y+0.25, x+0.25, z+0.25'
   'y+0.75, x+0.75, z+0.75'
_cell_length_a       10.34060
_cell_length_b       10.34060
_cell_length_c       20.40200
_cell_angle_alpha    90.0000
_cell_angle_beta     90.0000
_cell_angle_gamma    90.0000
_cell_formula_units_Z 8
loop_
_atom_site_label
_atom_site_fract_x
_atom_site_fract_y
_atom_site_fract_z
_atom_site_occupancy
_atom_site_B_iso_or_equiv
co      0.000   0.250   0.125    1.00000    2.423
p      0.241   0.000   0.250    1.00000    2.572
h      0.317   -0.063   0.282    1.00000    3.395
o      0.163   0.088   0.294    1.00000    2.826
o      0.000   0.250   0.226    1.00000    4.089
h      0.045   0.208   0.246    1.00000    2.921
o      0.003   0.049   0.124    1.00000    4.357
h      0.043   0.016   0.141    1.00000    2.762
h      -0.047   0.015   0.104    1.00000    4.262
_cell_measurement_wavelength    1.541874
_cell_measurement_radiation   'x-rays'
_cell_measurement_temperature    293.000000
_exptl_crystal_density_diffrn    1.808000
_exptl_crystal_colour            'purple'
loop_
_pd_peak_d_spacing
_pd_peak_intensity
     5.942916       1000.00
     5.170300          1.66
     5.100500          0.94
     4.611766          0.15
     4.510050         66.77
     3.824085        133.02
     3.655954        265.21
     3.631025        506.60
     3.113910        276.98
     3.083243        141.68
     3.059639         16.33
     2.971458        239.45
     2.840994          0.23
     2.840043          0.01
     2.752826          0.03
     2.642590          0.01
     2.585150        200.59
     2.550250         99.27
     2.505934          0.01
     2.489227          8.12
     2.465714          5.66
     2.370578          2.31
     2.356963          3.53
     2.353055         22.90
     2.346368          0.09
     2.312228         16.01
     2.305883         14.29
     2.287155         16.13
     2.255025          0.01
     2.136641          0.71
     2.105936         79.11
     2.091640         40.33
     2.057937          0.00
     2.057576          0.22
     2.044237          0.01
     2.035487          6.84
     2.010979          0.04
     1.989035        114.27
     1.980972         19.27
     1.978650          0.35
     1.965136         54.64
     1.912043          0.01
     1.911752          1.02
     1.901039          2.55
     1.897791          0.05
     1.884468          0.00
     1.847950          6.80
     1.844706          1.32
     1.827977         70.16
     1.815512        141.43
     1.778426          0.37
     1.747193         52.36
     1.741720         52.08
     1.737432          2.90
     1.730928         48.87
     1.723433         20.93
     1.721436          1.45
     1.720801          0.14
     1.712975          0.15
     1.700167          9.25
     1.699351          0.01
     1.694113          0.62
     1.686645          0.20
     1.681720          2.77
     1.675039          0.02
     1.649237          0.04
     1.634992         25.66
     1.632744         24.81
     1.615087         23.66
     1.614388          0.01
     1.609895          0.31
     1.603481          0.23
     1.601531          0.01
     1.587279          0.01
     1.572399          2.59
     1.571237          2.44
     1.569241          0.49
     1.564444          1.41
     1.557425          0.15
     1.556955          1.14
     1.541622          0.85
     1.537255          0.01
     1.537104          0.31
     1.529820          0.02
     1.527830          0.24
     1.508459          0.02
     1.503350          0.30
     1.501602          1.36
     1.491239          0.43
     1.486137          0.10
     1.485729         29.17
     1.473504          0.02
     1.468450          0.17
     1.465197          3.65
     1.455976          0.01
     1.447583         21.82
     1.442017          0.12
     1.438292         31.37
     1.433983          0.08
     1.429177          2.70
     1.427942          0.04
     1.420497          0.03
     1.420022          0.00
     1.416961          0.21
     1.412582          0.00
     1.405743          0.00
     1.402635          0.02
     1.390388          0.78
     1.380790          0.20
     1.380463         35.70
     1.376738          0.02
     1.376413         37.24
     1.369741         35.22
     1.362641          0.11
     1.360040          0.78
     1.345917          5.04
     1.343411         13.73
     1.341440          0.53
     1.338440         17.60
     1.334037          0.91
     1.331086          4.64
     1.330381          0.02
     1.321295          0.00
     1.321199          0.42
     1.316564          0.00
     1.315295          1.47
     1.312092          0.00
     1.304865          0.74
     1.302875          0.00
     1.299579          0.39
     1.292575          6.15
     1.282322          0.02
     1.280067          0.01
     1.276836          0.09
     1.275850          0.00
     1.275125          3.27
     1.274695          0.20
     1.269475          0.00
     1.268609          0.00
     1.260974          0.26
     1.260374          0.36
     1.259343          0.07
     1.253982          0.01
     1.253212          0.20
     1.252967          0.00
     1.250764          0.18
     1.250179          0.20
     1.249936          1.79
     1.244934          0.71
     1.244613          0.01
     1.238030          0.00
     1.232857          0.00
     1.228935          0.03
     1.227272          0.01
     1.223571          1.74
     1.218651         11.51
     1.217944          0.46
     1.217720          6.81
     1.215160          0.15
     1.210342         21.84
     1.208225          0.00
     1.208152          0.23
     1.205434          0.26
     1.203995          3.60
     1.203633          0.63
     1.198505          0.00
     1.195624          0.20
     1.193810          4.30
     1.191554          0.35
     1.188583         10.78
     1.187997          0.00
     1.185496          0.13
     1.185289          0.29
     1.183424          3.92
     1.178482          0.69
     1.176527          0.01
     1.173950          0.00
     1.173184          0.00
     1.170016          0.00
     1.161638          0.49
     1.160312          0.22
     1.156114          8.68
     1.153132          0.08
     1.152941          8.72
     1.148760          0.00
     1.143577          8.59
     1.143267          0.08
##############################################################################
###                            Comments                                    ###
##############################################################################
###   Diffraction pattern calculated by Match!. 
###   I/Ic calculated by Match!. 
###   Space group has been derived from given symmetry operations. 
##############################################################################


