##############################################################################
###               Crystal structure data exported by Match!                ###
##############################################################################
###                           Data published by:                           ###
###                                                                        ###
###               COD (Crystallography Open Database)
##############################################################################
data_1007031
_citation_journal_full    'Bulletin de la Societe Francaise de Mineralogie et de Cristallographie(72,1949-100,1977)'
_citation_journal_volume  '97'
_citation_page_first  '481'
_citation_page_last   '484'
_citation_year  '1974'
_citation_title  'Affinement de la structure cristalline du polyphosphate de cadmium. Cd(P O~3~)~2~'
loop_
_publ_author_name
  'Bagieu-Beucher M'
  'Guitel J C'
  'Tordjman I'
  'Durif A'
_chemical_formula_sum  'Cd O6 P2'
_chemical_name_common  'Cadmium catena-phosphate'
_symmetry_space_group_name_H-M 'P b c a'
_space_group_IT_number 61
_space_group_crystal_system 'orthorhombic'
loop_
_symmetry_equiv_pos_as_xyz
   'x, y, z'
   '-x+0.5, -y, z+0.5'
   'x+0.5, -y+0.5, -z'
   '-x, y+0.5, -z+0.5'
   '-x, -y, -z'
   'x+0.5, y, -z+0.5'
   '-x+0.5, y+0.5, z'
   'x, -y+0.5, z+0.5'
_cell_length_a        9.60700
_cell_length_b       13.70000
_cell_length_c        7.03700
_cell_angle_alpha    90.0000
_cell_angle_beta     90.0000
_cell_angle_gamma    90.0000
_cell_formula_units_Z 8
loop_
_atom_site_label
_atom_site_fract_x
_atom_site_fract_y
_atom_site_fract_z
_atom_site_occupancy
_atom_site_B_iso_or_equiv
cd      -0.008   0.206   0.053    1.00000    1.000
p      0.210   0.394   0.185    1.00000    1.000
p      0.302   0.403   0.581    1.00000    1.000
o      0.296   0.372   0.015    1.00000    1.000
o      0.100   0.322   0.244    1.00000    1.000
o      0.403   0.325   0.638    1.00000    1.000
o      0.153   0.367   0.635    1.00000    1.000
o      0.316   0.413   0.356    1.00000    1.000
o      0.133   0.496   0.156    1.00000    1.000
_cell_measurement_wavelength    1.541874
_cell_measurement_radiation   'x-rays'
_exptl_crystal_density_diffrn    3.877000
loop_
_pd_peak_d_spacing
_pd_peak_intensity
     6.850000        652.98
     5.244527         36.84
     4.908461          0.05
     4.803500         58.95
     4.532946         16.81
     4.370992         45.52
     3.932887       1000.00
     3.810759        106.99
     3.558281        660.05
     3.518500        110.04
     3.433095        129.05
     3.425000         34.04
     3.309681          1.62
     3.303888        191.63
     3.211812        323.05
     3.129768        178.76
     3.079606         75.03
     2.994964         11.65
     2.975833         12.01
     2.932615         17.54
     2.850912        165.23
     2.838482        163.96
     2.788703        331.73
     2.779452         77.64
     2.682018          0.88
     2.676796         59.56
     2.622264        204.36
     2.592548         18.70
     2.467614        366.32
     2.456925        151.41
     2.454230         18.58
     2.410742          6.24
     2.401750         61.43
     2.380022          3.65
     2.377865         45.52
     2.368296          1.11
     2.365672          1.90
     2.333683         91.85
     2.283333          0.03
     2.266473        105.44
     2.254563         23.41
     2.247845         43.97
     2.242354          0.87
     2.238295          0.06
     2.219730          0.42
     2.219162        141.71
     2.185496         49.43
     2.171862         17.79
     2.162226          5.72
     2.157338          0.24
     2.125690         16.91
     2.118403          0.10
     2.109077          5.08
     2.102391         83.84
     2.083268          0.16
     2.062206         40.08
     2.038977         43.12
     2.034877          7.09
     2.014564         16.90
     1.996384        138.35
     1.983664        100.82
     1.978979         11.18
     1.971369          3.84
     1.966443          6.07
     1.963191          0.27
     1.947955          5.78
     1.935304         66.14
     1.915364          0.57
     1.913764          1.08
     1.905379         93.23
     1.897192          3.64
     1.893888         20.32
     1.878396          0.01
     1.874524          6.46
     1.850273        113.61
     1.836814          1.70
     1.824001          7.21
     1.819427         31.35
     1.812474          0.25
     1.806112          0.43
     1.797463          7.78
     1.795088        142.99
     1.791756          4.55
     1.789204         13.54
     1.779141          0.00
     1.759250          0.45
     1.755190          0.06
     1.752014         50.31
     1.749411         15.95
     1.748176         22.49
     1.730475          0.84
     1.717469         70.33
     1.716833         93.40
     1.716548         16.76
     1.712500          3.25
     1.703952          9.14
     1.686341          4.25
     1.683874          1.52
     1.677766          0.22
     1.673710         61.59
     1.670651          0.08
     1.665665          0.07
     1.663937          0.50
     1.656328          1.38
     1.654840          7.69
     1.651944          7.39
     1.643776         13.31
     1.640064          1.78
     1.639528          2.07
     1.637452          0.64
     1.636154         26.93
     1.630141          3.38
     1.629917         15.16
     1.624831        131.11
     1.618190         73.99
     1.613056         48.98
     1.612929          0.02
     1.611259          0.34
     1.610897         26.91
     1.606785          1.28
     1.605906          1.29
     1.601167         30.49
     1.590342         10.13
     1.581930         14.36
     1.575132          1.75
     1.572278         15.13
     1.564884          1.66
     1.559139         16.24
     1.557075         40.20
     1.553430          0.00
     1.551221          1.74
     1.548774         91.69
     1.544528          0.34
     1.541896          2.63
     1.539803          6.27
     1.535259        145.91
     1.532222        128.09
     1.522224          5.27
     1.520398          8.64
     1.517196          1.68
     1.512903          1.41
     1.510982          0.02
     1.508656          7.75
     1.506954         22.53
     1.504258          0.87
     1.497482          5.19
     1.487917          0.11
     1.484702         16.69
     1.483116          0.03
     1.477721          9.61
     1.477310          3.21
     1.476514          4.74
     1.470283         20.61
     1.466307         14.81
     1.463110          2.21
     1.460872          3.06
     1.457360         28.40
     1.456997          0.01
     1.452588          0.97
     1.451102          3.32
     1.450490          2.76
     1.449184         12.36
     1.439077          0.74
     1.436143          0.01
     1.434209          1.81
     1.431051          3.73
     1.425456         31.94
     1.421200          0.34
     1.420625          7.08
     1.419241          4.71
     1.414718          0.03
     1.413407         16.11
     1.411686          0.52
     1.405989          1.01
     1.394352          7.20
     1.393586          0.56
     1.393191         10.81
     1.389726          0.84
     1.388375          2.06
     1.387714          0.34
     1.385398          0.01
     1.383118         21.28
     1.382537          8.94
     1.382431          0.04
     1.379151          1.66
     1.378603          9.04
     1.370000         34.16
     1.369003          1.28
     1.367760          2.07
     1.364624         19.18
     1.363524          1.75
     1.360412         12.96
     1.356503          7.99
     1.356496          2.18
     1.355298          0.38
     1.352202         30.82
     1.349294         27.76
     1.345790         16.44
     1.344752          0.38
     1.344105          0.19
     1.343744          1.01
     1.341492          0.67
     1.341009          3.06
     1.340584          8.76
     1.338398          0.87
     1.331985          0.18
     1.331769          3.03
     1.329117          8.06
     1.325109          3.42
     1.321735          0.15
     1.317464          5.82
     1.316324          1.40
     1.311132          0.30
     1.310962          0.70
     1.306528          0.02
     1.301779          4.05
     1.298466          8.05
     1.297522          1.73
     1.296397         12.23
     1.296274         12.02
     1.295163          2.61
     1.294964          1.26
     1.292012         28.78
     1.291742         13.30
     1.289990          1.97
     1.288789          2.25
     1.286680          0.04
     1.285733          0.09
     1.282795          0.25
     1.280523         16.01
     1.278603          1.07
     1.277831          0.45
     1.277526          3.21
     1.276639          7.84
     1.274853          2.34
     1.273938          0.03
     1.273071         17.57
     1.270253          2.97
     1.269746          1.00
     1.266250          3.67
     1.265778          5.77
     1.265514          4.00
     1.264795          4.02
     1.262375          0.84
     1.260219          2.93
     1.257833          2.39
     1.256895          1.81
     1.256456         40.73
     1.253579          9.58
     1.248120         51.12
     1.245701          3.17
     1.241411          0.67
     1.240044          0.33
     1.239869          0.04
     1.239276          0.07
     1.234051          0.75
     1.233807         23.06
     1.233675         12.01
     1.231253          4.70
     1.228462          0.47
     1.227115          0.83
     1.220494          1.11
     1.217226          0.49
     1.216522          3.95
     1.213370          0.02
     1.211440          0.50
     1.211175          0.10
     1.209535          0.13
     1.208860         11.32
     1.207630          0.57
     1.205946          1.33
     1.205590          0.00
     1.205371          0.67
     1.201565          0.14
     1.200875          2.65
     1.198578         23.43
     1.198092         12.88
     1.197856          1.97
     1.196288          1.81
     1.195636         19.69
     1.190982          0.55
     1.190011         16.86
     1.188933          0.96
     1.188882          4.95
     1.188277          4.76
     1.186094          0.13
     1.185877          2.36
     1.184148          0.00
     1.183711          9.11
     1.183005          0.46
     1.182836         11.74
     1.180164          0.38
     1.179749          0.38
     1.179368          2.67
     1.176366          2.84
     1.174137          0.08
     1.173500          0.36
     1.173352          0.00
     1.172833          0.49
     1.172682          1.53
     1.169576          1.63
     1.168890          2.99
     1.167243          0.75
     1.166842          1.79
     1.166472          1.42
     1.165975          0.03
     1.165400         13.88
     1.164190          0.19
     1.162478         31.80
     1.161391          1.09
     1.160198          4.57
     1.160009         23.79
     1.158659          0.05
     1.156011          3.16
     1.153749          1.58
     1.148945          0.84
     1.148682          1.74
     1.147732          0.36
     1.146620          0.00
     1.146239          0.95
     1.145889          2.05
     1.145867          0.74
     1.145281          4.09
     1.144478         27.34
     1.144365         12.57
     1.142948         14.64
     1.141667          3.58
     1.140498          1.28
     1.139363          4.15
     1.136504          4.19
     1.135443          0.05
     1.134639          0.08
     1.133237         10.12
     1.132613          0.05
     1.131513          0.07
     1.129953          6.82
     1.128109         11.64
     1.128102          0.46
     1.127468          0.06
     1.127282         12.96
     1.126932          0.44
     1.123922          3.74
     1.122528          0.00
     1.122128          1.54
     1.121177         10.44
     1.120110          0.00
     1.119502          0.11
     1.119428          2.92
     1.119258          0.21
     1.119148          1.12
     1.118822          1.33
     1.115602          0.98
     1.111618          1.42
     1.110726         11.82
     1.110146          3.15
     1.109865          6.76
     1.109705          0.00
     1.109624         24.01
     1.109581          0.68
     1.105639          1.01
     1.105476          0.92
     1.103227          0.97
     1.102863          5.07
     1.102320          7.38
     1.102254          1.14
     1.101848          0.16
     1.101725          0.46
     1.101296          2.38
     1.099877          0.30
     1.097755         19.70
     1.097143          1.11
     1.095749          2.85
     1.092872          0.73
     1.092748          0.03
     1.092239          0.33
     1.089914          3.37
     1.087333          0.19
     1.087316         18.25
     1.087307         18.87
     1.086982          0.40
     1.086684          3.16
     1.085931          9.04
     1.083262         21.07
     1.082099          0.14
     1.081447         16.71
     1.081113          0.17
     1.080908          0.00
     1.080418          2.99
     1.079060          0.09
     1.078740         30.09
     1.078669          3.16
     1.077719          0.05
     1.076180          0.82
     1.074130          0.16
     1.072256          0.38
     1.072102         18.04
     1.071484          0.40
     1.070604          6.35
     1.070419          1.71
     1.068845          2.85
     1.065696          0.04
     1.063480          8.83
     1.063323          0.23
     1.063030          0.09
     1.062845          3.79
     1.061251          2.92
     1.060486          6.23
     1.059202         13.31
     1.058755          0.05
     1.056153          1.31
     1.054787          0.19
     1.054539          2.92
     1.053954          0.67
     1.053890          1.91
     1.052943          0.71
     1.052693          1.09
     1.052254          0.32
     1.052034          0.18
     1.051489          0.31
     1.051196          0.18
     1.050926          1.14
     1.050785          0.68
     1.049781          0.63
     1.048905          0.63
     1.048429          0.33
     1.046681         11.84
     1.044720          8.95
     1.043256          0.04
     1.043064          2.24
     1.041634          1.26
     1.040961         10.28
     1.040802          1.35
     1.040346          1.97
     1.038054          1.49
     1.037159          1.53
     1.036144          4.49
     1.034194          0.73
     1.033763          3.11
     1.031826          1.21
     1.031817          0.07
     1.031103         12.95
     1.029856          0.04
     1.029756          0.70
     1.029586          1.91
     1.029364          0.03
     1.028410          0.77
     1.028269          6.17
     1.027466          0.16
     1.026899          2.53
     1.026535          2.93
     1.024538          1.66
     1.024140          0.35
     1.023556          0.07
     1.021845          0.34
     1.021471          2.33
     1.020725          1.50
     1.020394         15.15
     1.020209          0.03
     1.019489          0.20
     1.018644          4.39
     1.018525          0.21
     1.017438          0.03
     1.016641          0.05
     1.013402          4.76
     1.013139          0.74
     1.012897          0.26
     1.010864         14.32
     1.010300          1.55
     1.010279          0.00
     1.010072         15.15
     1.008781          8.13
     1.008576          1.07
     1.007374          0.00
     1.007282          2.10
     1.006455          0.32
##############################################################################
###                            Comments                                    ###
##############################################################################
###   Diffraction pattern calculated by Match!. 
###   I/Ic calculated by Match!. 
###   Space group has been derived from given symmetry operations. 
##############################################################################


