##############################################################################
###               Crystal structure data exported by Match!                ###
##############################################################################
###                           Data published by:                           ###
###                                                                        ###
###               COD (Crystallography Open Database)
##############################################################################
data_9012718
_citation_journal_full    'Powder Diffraction'
_citation_journal_volume  '16'
_citation_page_first  '92'
_citation_page_last   '97'
_citation_year  '2001'
_citation_title  'X-ray powder diffraction study of synthetic palmierite, K2Pb(SO4)2Locality: synthetic'
loop_
_publ_author_name
  'Tissot R. G.'
  'Rodriguez M. A.'
  'Sipola D. L.'
  'Voigt J. A.'
_chemical_formula_sum  'K2 O8 Pb S2'
_chemical_name_mineral  'Palmierite'
_symmetry_space_group_name_H-M 'R -3 m'
_space_group_IT_number 166
_space_group_crystal_system 'trigonal (hexagonal axes)'
loop_
_symmetry_equiv_pos_as_xyz
   'x, y, z'
   'x+0.66667, y+0.33333, z+0.33333'
   'x+0.33333, y+0.66667, z+0.66667'
   '-y, x-y, z'
   '-y+0.66667, x-y+0.33333, z+0.33333'
   '-y+0.33333, x-y+0.66667, z+0.66667'
   '-x+y, -x, z'
   '-x+y+0.66667, -x+0.33333, z+0.33333'
   '-x+y+0.33333, -x+0.66667, z+0.66667'
   'x-y, -y, -z'
   'x-y+0.66667, -y+0.33333, -z+0.33333'
   'x-y+0.33333, -y+0.66667, -z+0.66667'
   '-x, -x+y, -z'
   '-x+0.66667, -x+y+0.33333, -z+0.33333'
   '-x+0.33333, -x+y+0.66667, -z+0.66667'
   'y, x, -z'
   'y+0.66667, x+0.33333, -z+0.33333'
   'y+0.33333, x+0.66667, -z+0.66667'
   '-x, -y, -z'
   '-x+0.66667, -y+0.33333, -z+0.33333'
   '-x+0.33333, -y+0.66667, -z+0.66667'
   'y, -x+y, -z'
   'y+0.66667, -x+y+0.33333, -z+0.33333'
   'y+0.33333, -x+y+0.66667, -z+0.66667'
   'x-y, x, -z'
   'x-y+0.66667, x+0.33333, -z+0.33333'
   'x-y+0.33333, x+0.66667, -z+0.66667'
   '-x+y, y, z'
   '-x+y+0.66667, y+0.33333, z+0.33333'
   '-x+y+0.33333, y+0.66667, z+0.66667'
   'x, x-y, z'
   'x+0.66667, x-y+0.33333, z+0.33333'
   'x+0.33333, x-y+0.66667, z+0.66667'
   '-y, -x, z'
   '-y+0.66667, -x+0.33333, z+0.33333'
   '-y+0.33333, -x+0.66667, z+0.66667'
_cell_length_a        5.49700
_cell_length_b        5.49700
_cell_length_c       20.86400
_cell_angle_alpha    90.0000
_cell_angle_beta     90.0000
_cell_angle_gamma   120.0000
loop_
_atom_site_label
_atom_site_fract_x
_atom_site_fract_y
_atom_site_fract_z
_atom_site_occupancy
_atom_site_B_iso_or_equiv
k      0.333   0.667   0.465    1.00000    1.989
pb      0.000   0.000   0.000    1.00000    1.989
s      0.000   0.000   0.403    1.00000    1.989
o      0.000   0.000   0.333    1.00000    1.989
o      0.296   0.148   0.427    1.00000    1.989
_cell_measurement_wavelength    1.541874
_cell_measurement_radiation   'x-rays'
_exptl_crystal_density_diffrn    4.357000
loop_
_pd_peak_d_spacing
_pd_peak_intensity
     6.954667        549.26
     4.641259        395.35
     4.330905        629.15
     3.516226        199.31
     3.477333         36.97
     3.137958       1000.00
     2.748500        747.86
     2.556125        361.01
     2.526271        142.80
     2.364930        100.67
     2.320629         10.55
     2.318222         89.19
     2.287257         34.68
     2.165452        180.16
     2.156274        278.61
     2.067547        302.97
     1.910930        211.04
     1.859953         22.93
     1.792662         99.69
     1.773134         82.96
     1.772060        117.86
     1.762021         33.48
     1.758113         59.96
     1.738667         28.70
     1.700955         46.17
     1.652255        179.50
     1.586847         99.26
     1.568979         58.82
     1.547086         63.08
     1.540393         34.74
     1.520822         10.25
     1.483369          7.36
     1.481035         25.68
     1.469354         44.26
     1.443635         59.28
     1.422225         25.43
     1.390933         14.87
     1.374250         85.53
     1.362595        116.11
     1.348181         28.44
     1.330694         16.49
     1.317701         19.75
     1.309887         23.44
     1.309454         32.67
     1.305388         26.08
     1.279966         19.30
     1.278063         14.08
     1.263135          7.52
     1.258824         70.89
     1.257671          7.10
     1.241061         84.97
     1.207194         17.53
     1.197704         11.66
     1.188436          6.27
     1.188204          7.74
     1.182465          3.02
     1.182146         30.48
     1.177979          9.57
     1.172075         16.70
     1.160315         11.75
     1.159111          1.83
     1.147733         15.66
     1.144495         25.10
     1.143629          7.24
     1.115699         42.45
     1.105280          3.91
     1.090829          9.31
     1.090650          6.41
     1.086207         12.91
     1.083637          8.70
     1.082726          7.01
     1.078137         19.89
     1.070008          8.46
     1.068962          9.01
     1.068021         11.68
     1.056554         39.57
     1.055873          5.12
     1.045986         43.11
     1.038835         35.80
     1.033773         12.38
     1.027436         22.30
     1.025469         12.64
     1.019633          5.60
     1.019020         13.26
     1.013896          6.33
     1.008113          2.23
     1.007380          4.06
##############################################################################
###                            Comments                                    ###
##############################################################################
###   Diffraction pattern calculated by Match!. 
###   I/Ic calculated by Match!. 
##############################################################################


