##############################################################################
###               Crystal structure data exported by Match!                ###
##############################################################################
###                           Data published by:                           ###
###                                                                        ###
###               COD (Crystallography Open Database)
##############################################################################
data_9006299
_citation_journal_full    'Physics and Chemistry of Minerals'
_citation_journal_volume  '21'
_citation_page_first  '269'
_citation_page_last   '284'
_citation_year  '1994'
_citation_title  'Framework silica structures generated using simulated annealingwith a potential energy function based on an H6Si2O7 moleculeSample: 16'
loop_
_publ_author_name
  'Boisen M. B.'
  'Gibbs G. V.'
  'Bukowinski M. S. T.'
_chemical_formula_sum  'O2 Si'
_chemical_name_common  'Silica'
_symmetry_space_group_name_H-M 'C 1 c 1'
_space_group_IT_number 9
_space_group_crystal_system 'monoclinic'
loop_
_symmetry_equiv_pos_as_xyz
   'x, y, z'
   'x+0.5, y+0.5, z'
   'x, -y, z+0.5'
   'x+0.5, -y+0.5, z+0.5'
_cell_length_a        6.63950
_cell_length_b        8.04880
_cell_length_c        5.41840
_cell_angle_alpha    90.0000
_cell_angle_beta     99.9967
_cell_angle_gamma    90.0000
loop_
_atom_site_label
_atom_site_fract_x
_atom_site_fract_y
_atom_site_fract_z
_atom_site_occupancy
_atom_site_B_iso_or_equiv
si      0.000   0.040   0.500    1.00000    1.000
si      0.049   0.414   0.416    1.00000    1.000
o      0.298   0.580   0.971    1.00000    1.000
o      0.125   0.014   0.782    1.00000    1.000
o      0.473   0.963   0.120    1.00000    1.000
o      0.450   0.735   0.461    1.00000    1.000
_cell_measurement_wavelength    1.541874
_cell_measurement_radiation   'x-rays'
_exptl_crystal_density_diffrn    2.799000
loop_
_pd_peak_d_spacing
_pd_peak_intensity
     5.075069         84.29
     4.024400       1000.00
     3.953021        560.31
     3.452484        306.05
     3.269349        641.85
     3.213064        188.72
     2.668068        317.71
     2.537534        184.04
     2.504685        125.31
     2.482114         58.85
     2.421654        105.66
     2.309505        174.45
     2.269021         34.55
     2.240534         69.91
     2.223751         12.29
     2.195899         48.68
     2.180509          4.37
     2.103795         34.68
     2.079689         51.14
     2.012200         28.56
     1.976511         20.60
     1.910973        105.19
     1.882785         42.86
     1.880142          2.88
     1.854045         42.42
     1.805646         75.29
     1.760377         23.55
     1.753986         34.51
     1.726242         41.56
     1.713638         23.94
     1.691690         12.72
     1.679080         72.81
     1.676584         39.70
     1.634674         31.78
     1.626891         29.34
     1.612168         27.24
     1.606532          4.54
     1.589998          7.71
     1.563088         54.97
     1.558561         22.64
     1.553426         37.75
     1.531914          0.53
     1.524625         14.32
     1.522701         45.90
     1.517137         41.55
     1.516016          7.04
     1.514502         25.07
     1.505487         35.09
     1.493141         32.35
     1.486653          5.84
     1.483540         21.95
     1.418693          4.71
     1.402703         18.46
     1.399054         14.35
     1.385667          6.34
     1.373776         18.15
     1.372211         11.19
     1.348880         11.39
     1.341467          8.72
     1.335194         91.87
     1.334034         11.31
     1.332680         18.45
     1.324916         18.65
     1.317772          1.69
     1.317674          4.95
     1.306842          0.36
     1.300986         24.19
     1.297160         40.86
     1.294878         11.25
     1.294335          9.76
     1.290813         13.20
     1.289197         24.54
     1.273576         21.49
     1.268767         13.67
     1.266276          2.27
     1.258317         12.31
     1.257247         17.57
     1.252343          0.34
     1.249477         21.31
     1.248886         62.46
     1.241057          3.31
     1.234611         47.38
     1.229633         13.35
     1.226763         22.63
     1.223115         27.29
     1.215199          4.67
     1.210827         25.16
     1.208754         13.03
     1.208209          0.22
     1.199076         19.51
     1.198548          5.63
     1.198506         22.57
     1.191594         14.47
     1.187597         17.44
     1.181542         13.78
     1.175529          0.62
     1.166368          2.56
     1.154752          6.19
     1.150828         21.61
     1.150705         20.94
     1.144053          6.28
     1.143600         10.51
     1.141842          1.05
     1.134510          1.18
     1.132452          6.16
     1.123714          4.35
     1.120427         19.22
     1.120267          0.84
     1.114607          1.35
     1.112121         11.98
     1.111875          6.57
     1.105748         10.08
     1.102407         12.26
     1.102350          9.70
     1.101078          0.64
     1.097950          2.58
     1.091950          3.91
     1.090992          1.62
     1.090255          0.84
     1.089783          2.67
     1.076397          0.34
     1.073931          0.76
     1.071219          2.57
     1.071021          4.73
     1.066503          5.10
     1.059715          1.90
     1.053896          6.15
     1.051898          5.57
     1.050812          2.16
     1.049870          4.48
     1.039845          1.43
     1.039612          6.48
     1.036991          7.21
     1.036172          3.20
     1.034850          9.62
     1.031571          4.63
     1.031346          0.48
     1.023467          0.75
     1.022752          2.23
     1.018992         15.90
     1.018692          2.71
     1.017151          1.34
     1.016987          3.13
     1.015014          1.94
     1.014227          1.76
     1.009099          1.33
##############################################################################
###                            Comments                                    ###
##############################################################################
###   Diffraction pattern calculated by Match!. 
###   I/Ic calculated by Match!. 
###   Space group has been derived from given symmetry operations. 
##############################################################################


