##############################################################################
###               Crystal structure data exported by Match!                ###
##############################################################################
###                           Data published by:                           ###
###                                                                        ###
###               COD (Crystallography Open Database)
##############################################################################
data_9005854
_citation_journal_full    'Physics and Chemistry of Minerals'
_citation_journal_volume  '14'
_citation_page_first  '139'
_citation_page_last   '150'
_citation_year  '1987'
_citation_title  'Exploration of structure and bonding in stishovite with Fourier andPseudoaton Refinement methods using single crystal and powderX-ray diffraction dataSample: IAM+'
loop_
_publ_author_name
  'Spackman M. A.'
  'Hill R. J.'
  'Gibbs G. V.'
_chemical_formula_sum  'O2 Si'
_chemical_name_mineral  'Stishovite'
_symmetry_space_group_name_H-M 'P 42/m n m'
_space_group_IT_number 136
_space_group_crystal_system 'tetragonal'
loop_
_symmetry_equiv_pos_as_xyz
   'x, y, z'
   '-y+0.5, x+0.5, z+0.5'
   '-x, -y, z'
   'y+0.5, -x+0.5, z+0.5'
   'x+0.5, -y+0.5, -z+0.5'
   '-x+0.5, y+0.5, -z+0.5'
   'y, x, -z'
   '-y, -x, -z'
   '-x, -y, -z'
   'y+0.5, -x+0.5, -z+0.5'
   'x, y, -z'
   '-y+0.5, x+0.5, -z+0.5'
   '-x+0.5, y+0.5, z+0.5'
   'x+0.5, -y+0.5, z+0.5'
   '-y, -x, z'
   'y, x, z'
_cell_length_a        4.17730
_cell_length_b        4.17730
_cell_length_c        2.66550
_cell_angle_alpha    90.0000
_cell_angle_beta     90.0000
_cell_angle_gamma    90.0000
loop_
_atom_site_label
_atom_site_fract_x
_atom_site_fract_y
_atom_site_fract_z
_atom_site_occupancy
_atom_site_B_iso_or_equiv
si      0.000   0.000   0.000    1.00000    0.171
o      0.306   0.306   0.000    1.00000    0.222
_cell_measurement_wavelength    1.541874
_cell_measurement_radiation   'x-rays'
_exptl_crystal_density_diffrn    4.290000
loop_
_pd_peak_d_spacing
_pd_peak_intensity
     2.953797       1000.00
     2.247019        247.99
     2.088650          6.96
     1.978889        399.45
     1.868145        150.18
     1.529825        587.11
     1.476899        196.66
     1.332750        102.12
     1.320978         62.92
     1.291850         13.40
     1.234180        268.82
     1.214818        104.45
     1.183602         21.78
     1.158575          4.76
     1.123510         11.40
     1.084953         27.25
     1.062543         29.61
     1.044325         36.20
     1.013144         25.93
##############################################################################
###                            Comments                                    ###
##############################################################################
###   Diffraction pattern calculated by Match!. 
###   I/Ic calculated by Match!. 
###   Space group has been derived from given symmetry operations. 
##############################################################################


