##############################################################################
###               Crystal structure data exported by Match!                ###
##############################################################################
###                           Data published by:                           ###
###                                                                        ###
###               COD (Crystallography Open Database)
##############################################################################
data_9007165
_citation_journal_full    'Physics and Chemistry of Minerals'
_citation_journal_volume  '30'
_citation_page_first  '167'
_citation_page_last   '176'
_citation_year  '2003'
_citation_title  'Compression mechanisms of coesiteSample: X1P3, P = 3.763 GPa'
loop_
_publ_author_name
  'Angel R. J.'
  'Shaw C. S. J.'
  'Gibbs G. V.'
_chemical_formula_sum  'O2 Si'
_chemical_name_mineral  'Coesite'
_symmetry_space_group_name_H-M 'C 1 2/c 1'
_space_group_IT_number 15
_space_group_crystal_system 'monoclinic'
loop_
_symmetry_equiv_pos_as_xyz
   'x, y, z'
   'x+0.5, y+0.5, z'
   '-x, y, -z+0.5'
   '-x+0.5, y+0.5, -z+0.5'
   '-x, -y, -z'
   '-x+0.5, -y+0.5, -z'
   'x, -y, z+0.5'
   'x+0.5, -y+0.5, z+0.5'
_cell_length_a        7.02030
_cell_length_b       12.26150
_cell_length_c        7.12600
_cell_angle_alpha    90.0000
_cell_angle_beta    120.6700
_cell_angle_gamma    90.0000
loop_
_atom_site_label
_atom_site_fract_x
_atom_site_fract_y
_atom_site_fract_z
_atom_site_occupancy
_atom_site_B_iso_or_equiv
si      0.138   0.110   0.071    1.00000    0.460
si      0.508   0.157   0.544    1.00000    0.420
o      0.000   0.000   0.000    1.00000    0.769
o      0.500   0.111   0.750    1.00000    0.610
o      0.256   0.129   0.931    1.00000    0.709
o      0.317   0.101   0.326    1.00000    0.730
o      0.025   0.212   0.472    1.00000    0.670
_cell_measurement_wavelength    1.541874
_cell_measurement_radiation   'x-rays'
_cell_measurement_pressure       3760000.000000
_exptl_crystal_density_diffrn    3.026000
loop_
_pd_peak_d_spacing
_pd_peak_intensity
     6.130750         64.63
     5.493862          6.14
     5.417056          4.87
     4.334551         31.27
     3.421460         69.21
     3.403193        136.72
     3.384698        336.17
     3.365992        701.72
     3.072614        953.77
     3.065375       1000.00
     3.064606        792.26
     3.045718        809.87
     3.019148        178.75
     2.746931         11.53
     2.741617         62.69
     2.741204         88.83
     2.708528        109.50
     2.685741        101.47
     2.658661        273.94
     2.308680        117.30
     2.288425         65.35
     2.277643         10.98
     2.272073         30.67
     2.267024          3.42
     2.260593         82.69
     2.250667         60.91
     2.179630         26.29
     2.170102         42.92
     2.167275         23.31
     2.151018         47.43
     2.141465          6.01
     2.043583          0.60
     2.023760         23.24
     2.020410          8.66
     2.020070          2.83
     2.008913         33.91
     2.008472        111.57
     2.004434          4.42
     1.997505          0.45
     1.986183         31.91
     1.938665          0.02
     1.938275          0.58
     1.855967          7.01
     1.832234         15.30
     1.831287         93.99
     1.805685        109.32
     1.781492        156.47
     1.765988        118.76
     1.754711          2.31
     1.750236          0.05
     1.710730          0.09
     1.701597          8.09
     1.700233         59.34
     1.700069         34.91
     1.693670          8.47
     1.692349         86.82
     1.690984          8.34
     1.688894         14.86
     1.686974         26.05
     1.684546         15.50
     1.682996         28.65
     1.682289         50.82
     1.680236          1.02
     1.677613          3.51
     1.675195        128.62
     1.673544          1.57
     1.660212          7.69
     1.634696        165.47
     1.618410          6.19
     1.577548          2.34
     1.575376         12.39
     1.572109          1.02
     1.571949         39.90
     1.566465         33.59
     1.562586         44.10
     1.555822         37.24
     1.550405         15.38
     1.540266         45.58
     1.536941          0.01
     1.536307         38.12
     1.532688         46.08
     1.532303         13.33
     1.523382         10.20
     1.522859         21.82
     1.519931         71.08
     1.509574         28.86
     1.490230          0.05
     1.486903         28.58
     1.486574          3.14
     1.484072          4.46
     1.471853          1.87
     1.465793         14.59
     1.444850          0.15
     1.406517         13.05
     1.404577         21.07
     1.402695          1.18
     1.401168          0.89
     1.399978         10.99
     1.395035          6.40
     1.393532         14.03
     1.392146         26.92
     1.391198          1.11
     1.388877         15.55
     1.383511          1.82
     1.382583         16.67
     1.379662         34.73
     1.378643          0.42
     1.373466          5.98
     1.371523          2.02
     1.370809          6.76
     1.370602          1.86
     1.366667          5.07
     1.359226          1.95
     1.354264          0.03
     1.342871          1.06
     1.337862         15.90
     1.334252        129.16
     1.331288         85.14
     1.331274         49.79
     1.330094          1.61
     1.329330         53.00
     1.328982         67.68
     1.328131         39.07
     1.324252         12.06
     1.322654          2.12
     1.321340         31.04
     1.317215         53.93
     1.314688         41.12
     1.313516         72.35
     1.311812          3.85
     1.305141         68.37
     1.296807         11.73
     1.288517         63.27
     1.284640          4.25
     1.280815         23.09
     1.275219         42.78
     1.272936          8.16
     1.272533         89.85
     1.269871         54.48
     1.269619          6.49
     1.268887          3.75
     1.266480          9.11
     1.255585          0.11
     1.231458          0.27
     1.228001          3.02
     1.226168          4.78
     1.226150          6.45
     1.226039         54.52
     1.225953          8.13
     1.223633          0.00
     1.222918         16.99
     1.222619         12.43
     1.216611          5.47
     1.214428          1.09
     1.214219         42.61
     1.210835          0.79
     1.210786          0.03
     1.210213          8.37
     1.208253         41.52
     1.202327          0.40
     1.202049         10.01
     1.201844         17.77
     1.182129         34.99
     1.177400         29.51
     1.176983          2.99
     1.176011          1.33
     1.173188         27.35
     1.173076         27.57
     1.172183         44.28
     1.170792          0.22
     1.170512         32.58
     1.165993          0.56
     1.164677          5.47
     1.163279          0.44
     1.161894          0.14
     1.161866         14.34
     1.161577          0.04
     1.158160         28.87
     1.157533          1.50
     1.154340          4.99
     1.153397          0.03
     1.153063         15.70
     1.151544          0.08
     1.150010          2.09
     1.149077         17.17
     1.145460          0.89
     1.144784          1.71
     1.144213          0.22
     1.142711         12.66
     1.140487          4.50
     1.138821          2.31
     1.138412          0.74
     1.138205          4.70
     1.137169          0.45
     1.136037          4.78
     1.134398          0.76
     1.133512          1.33
     1.131644          0.99
     1.130297          1.28
     1.128233          4.93
     1.125333          2.07
     1.123364          2.59
     1.123350         40.76
     1.121997         10.50
     1.107593         12.20
     1.101870          0.30
     1.101128         19.12
     1.099652          0.15
     1.098772          7.15
     1.096785          2.81
     1.096161          0.32
     1.092928          2.20
     1.092797         12.73
     1.092602          2.89
     1.089815          0.03
     1.089530         17.01
     1.088740          1.56
     1.088099         12.38
     1.085275          6.76
     1.085051          0.49
     1.083638          0.02
     1.083411         14.38
     1.083073         14.42
     1.080469          4.41
     1.080365          0.25
     1.079510          2.95
     1.076731          3.13
     1.075509          0.36
     1.072438          0.91
     1.070733          0.25
     1.068929         21.97
     1.068902         22.86
     1.067914          3.47
     1.065894          0.92
     1.065566         19.66
     1.065403         11.27
     1.064896         20.86
     1.063835          3.35
     1.062279          6.89
     1.062131          6.92
     1.060919          0.34
     1.060291          0.59
     1.059648          0.01
     1.057082          0.51
     1.053873          0.99
     1.053636          2.08
     1.051345          6.92
     1.051221          3.62
     1.048302          1.89
     1.039628         22.16
     1.035673          0.00
     1.031226          6.46
     1.024205          0.03
     1.023286          0.08
     1.021792          0.14
     1.021535          3.13
     1.015239          4.12
     1.012743          0.05
     1.011880          0.14
     1.010831          6.46
     1.010694         17.16
     1.010205          0.13
     1.010035          3.56
     1.008468          0.76
     1.007882          5.62
     1.007643          0.01
     1.006767          4.63
##############################################################################
###                            Comments                                    ###
##############################################################################
###   Diffraction pattern calculated by Match!. 
###   I/Ic calculated by Match!. 
###   Space group has been derived from given symmetry operations. 
##############################################################################


