##############################################################################
###               Crystal structure data exported by Match!                ###
##############################################################################
###                           Data published by:                           ###
###                                                                        ###
###               COD (Crystallography Open Database)
##############################################################################
data_9003874
_citation_journal_full    'American Mineralogist'
_citation_journal_volume  '91'
_citation_page_first  '115'
_citation_page_last   '119'
_citation_year  '2006'
_citation_title  'First-principles study of the OH-stretching modes of gibbsiteLocality: hypothetical structure calculated with DFT'
loop_
_publ_author_name
  'Balan E.'
  'Lazzeri M.'
  'Morin G.'
  'Mauri F.'
_chemical_formula_sum  'Al H3 O3'
_chemical_name_mineral  'Gibbsite'
_symmetry_space_group_name_H-M 'P 1 21/n 1'
_space_group_IT_number 14
_space_group_crystal_system 'monoclinic'
loop_
_symmetry_equiv_pos_as_xyz
   'x, y, z'
   '-x+0.5, y+0.5, -z+0.5'
   '-x, -y, -z'
   'x+0.5, -y+0.5, z+0.5'
_cell_length_a        8.74200
_cell_length_b        5.11200
_cell_length_c        9.80100
_cell_angle_alpha    90.0000
_cell_angle_beta     94.5400
_cell_angle_gamma    90.0000
loop_
_atom_site_label
_atom_site_fract_x
_atom_site_fract_y
_atom_site_fract_z
_atom_site_occupancy
_atom_site_B_iso_or_equiv
al      0.168   0.531   -0.003    1.00000    1.000
al      0.336   0.025   -0.003    1.00000    1.000
o      0.174   0.219   -0.112    1.00000    1.000
o      0.669   0.655   -0.103    1.00000    1.000
o      0.498   0.133   -0.106    1.00000    1.000
o      -0.020   0.632   -0.108    1.00000    1.000
o      0.303   0.716   -0.105    1.00000    1.000
o      0.822   0.146   -0.102    1.00000    1.000
h      0.072   0.138   -0.123    1.00000    1.000
h      0.574   0.551   -0.102    1.00000    1.000
h      0.494   0.108   -0.207    1.00000    1.000
h      -0.049   0.817   -0.113    1.00000    1.000
h      0.300   0.718   -0.206    1.00000    1.000
h      0.807   0.162   -0.203    1.00000    1.000
_cell_measurement_wavelength    1.541874
_cell_measurement_radiation   'x-rays'
_exptl_crystal_density_diffrn    2.373000
loop_
_pd_peak_d_spacing
_pd_peak_intensity
     6.775318          0.00
     6.261897          1.23
     4.885124       1000.00
     4.529466          0.42
     4.409348        345.89
     4.357285        146.06
     4.080762          0.00
     3.959991          0.14
     3.531787          0.05
     3.387659         54.54
     3.340415        100.33
     3.316115          0.72
     3.209878         81.47
     3.199378          8.14
     3.133085          0.29
     3.130948         40.13
     3.084136          3.09
     2.974449          0.45
     2.846628          1.84
     2.823878          3.34
     2.746703          0.23
     2.726075          4.16
     2.671290          0.08
     2.669965          8.91
     2.570918          0.38
     2.556000          0.57
     2.525581          1.27
     2.487031         81.59
     2.472782        143.96
     2.452679          0.12
     2.442562         32.73
     2.405424        210.36
     2.396878          6.83
     2.391482          3.48
     2.366450         10.33
     2.309262         49.49
     2.264733         72.61
     2.258439          4.44
     2.256609          4.49
     2.211771          3.82
     2.206429          9.61
     2.204674          0.01
     2.203906          0.40
     2.183039        100.85
     2.178642          1.27
     2.173861         14.66
     2.172602          5.05
     2.169337          0.63
     2.132342          0.35
     2.101263         11.91
     2.087299          1.18
     2.065817        156.35
     2.062146          7.57
     2.051046          6.81
     2.040381         10.06
     2.025787          4.38
     2.010691        115.18
     2.004218          2.14
     1.992098          2.91
     1.980536          4.55
     1.979996         14.65
     1.939767          0.10
     1.938574          2.75
     1.935783          1.82
     1.933616         10.50
     1.932419         76.32
     1.918913          0.29
     1.912409          5.61
     1.903545          0.68
     1.901840          0.63
     1.875277          0.12
     1.864593          0.67
     1.860604          0.60
     1.825248          0.03
     1.819455        135.74
     1.818717          0.33
     1.813591          0.29
     1.808561          3.76
     1.792659          0.07
     1.765894        121.65
     1.765233          5.68
     1.760556          0.24
     1.755105          0.05
     1.750324         12.15
     1.729701          0.73
     1.711756         12.12
     1.698332        120.27
     1.693829         11.29
     1.692817          0.02
     1.692430          0.71
     1.684268          0.04
     1.678661          0.00
     1.672330          6.28
     1.670208         23.60
     1.658058          8.27
     1.653981          1.82
     1.652537          3.58
     1.651175          0.73
     1.649667         10.44
     1.647027          1.67
     1.644210          1.92
     1.640830          0.17
     1.628375          0.02
     1.618680          2.72
     1.616711          0.47
     1.608929          0.06
     1.607865          0.65
     1.606998          2.18
     1.604939         21.20
     1.599708         10.32
     1.599689          9.26
     1.599680          0.04
     1.589940          0.19
     1.589605          6.26
     1.586964         23.84
     1.574876          5.89
     1.573631          0.40
     1.566542          1.73
     1.565474          9.54
     1.564995          0.04
     1.559337          0.01
     1.552372          0.84
     1.551560          0.00
     1.548804          0.17
     1.547816          4.57
     1.545182          0.74
     1.542068          5.76
     1.528626          4.58
     1.522271          9.37
     1.518204          2.89
     1.514945          1.22
     1.511985          0.93
     1.509822          0.11
     1.508036          5.77
     1.497793          0.33
     1.496928          3.38
     1.496859          0.86
     1.496695          5.61
     1.496441          5.21
     1.492306          0.04
     1.488458          0.04
     1.487225          2.89
     1.478562          2.00
     1.472021          0.11
     1.469783         96.45
     1.462068          0.00
     1.453006          0.32
     1.452428         57.55
     1.444941          0.06
     1.443082          0.09
     1.442861          1.33
     1.439994          0.48
     1.438237          0.14
     1.434105          0.24
     1.429111          1.28
     1.428019          0.45
     1.423314         30.35
     1.423274         34.84
     1.417215          4.46
     1.413595         48.54
     1.411939          5.66
     1.411352          0.52
     1.410681          0.23
     1.406406          1.71
     1.406387          0.03
     1.398059          0.00
     1.397527          0.01
     1.397131          1.91
     1.395543          0.03
     1.392161         17.30
     1.389771          4.61
     1.373352         32.67
     1.371159          0.85
     1.370754          4.37
     1.370227          4.31
     1.368537          0.20
     1.363037          6.46
     1.361459          0.35
     1.360254          0.00
     1.357371          0.89
     1.356828          5.78
     1.355064          0.14
     1.350819          0.00
     1.350058          0.00
     1.348636          0.49
     1.346464          0.00
     1.346278          0.08
     1.342893          4.83
     1.342215         16.91
     1.338556          0.10
     1.335645          9.23
     1.334983          4.29
     1.334686          0.00
     1.327595         29.14
     1.321917          2.70
     1.321068          0.57
     1.320926          0.16
     1.319997          0.02
     1.317025          0.12
     1.315601          0.14
     1.315081          0.00
     1.313566          0.10
     1.311420          0.47
     1.310683          7.11
     1.309827          0.00
     1.303594          0.05
     1.298834          0.33
     1.294207          0.28
     1.286255          0.02
     1.285459          5.05
     1.284276          0.01
     1.282253          0.04
     1.280196          0.01
     1.278423          2.41
     1.278000          0.43
     1.277562          2.45
     1.274908          0.03
     1.267205          2.27
     1.264475          3.24
     1.263476          1.86
     1.262841          0.20
     1.262790          3.00
     1.261125          0.13
     1.259598          0.00
     1.258838         15.02
     1.257452          1.88
     1.255854          2.48
     1.254624          0.66
     1.252379          0.06
     1.252187          1.85
     1.249949          0.02
     1.249637          0.11
     1.247396          0.02
     1.243515          5.59
     1.241558          7.54
     1.237654          0.03
     1.236391          5.04
     1.228284          0.13
     1.227557          3.88
     1.226340          8.17
     1.225006         11.34
     1.224866          1.90
     1.222876          0.15
     1.221281         18.10
     1.221054          0.01
     1.220901          0.15
     1.220735          3.61
     1.220170          0.65
     1.220156          0.50
     1.218435          4.23
     1.217370          0.15
     1.216407          0.12
     1.214861          0.00
     1.213456          0.43
     1.211839          0.10
     1.210745          0.03
     1.209586          6.73
     1.207123          0.05
     1.206434          1.68
     1.205681         10.23
     1.204900          2.02
     1.202712         11.45
     1.201627          1.02
     1.201298          0.00
     1.201231          0.02
     1.200937          2.93
     1.200925          1.63
     1.198439          1.86
     1.197885          2.43
     1.197873          0.01
     1.197223          0.10
     1.195781          4.72
     1.195741          3.24
     1.194844          0.03
     1.189679          3.03
     1.189320          1.20
     1.189286          3.74
     1.187853          0.02
     1.187503         12.21
     1.186611          0.00
     1.183340          3.91
     1.183225          1.23
     1.179808          0.00
     1.177262          0.01
     1.175625          2.58
     1.174814          0.81
     1.174204          2.88
     1.169793          0.05
     1.169098          0.09
     1.167150          1.92
     1.165892          0.16
     1.165028          3.15
     1.163485          1.49
     1.162491          2.26
     1.158504          0.28
     1.157913          0.35
     1.157907          1.55
     1.157152          0.00
     1.156196          0.91
     1.154631         14.89
     1.153613          1.93
     1.153251          0.36
     1.152824          0.03
     1.152633          0.00
     1.152495          0.96
     1.150984          3.94
     1.145934          0.00
     1.139330          0.25
     1.134147          0.25
     1.133336          0.27
     1.132430          0.11
     1.132366         11.96
     1.130391          4.95
     1.129506          0.01
     1.129220          0.02
     1.128304          2.78
     1.128229          3.76
     1.124635          0.22
     1.124277          0.01
     1.121022          0.04
     1.121007          0.85
     1.120480          0.58
     1.119238          0.07
     1.118710          1.05
     1.117777          2.25
     1.117697          3.13
     1.115522          1.39
     1.115238          0.68
     1.113472          0.14
     1.112265          0.14
     1.108274          0.11
     1.108156          0.20
     1.107224          0.72
     1.106470          0.14
     1.105886          0.00
     1.105831          0.03
     1.105372          0.23
     1.103214          0.52
     1.103124          0.63
     1.103097          0.62
     1.102638          0.55
     1.102337          3.88
     1.101953          2.84
     1.101674          0.01
     1.100962          0.98
     1.100308          0.01
     1.097657          0.04
     1.095522          0.25
     1.092375          0.03
     1.091519         15.25
     1.091047          0.10
     1.090532          0.03
     1.089930          0.00
     1.089771          0.11
     1.089321          2.76
     1.087872          0.25
     1.086930          0.63
     1.086301          0.01
     1.084669          1.90
     1.083657          0.31
     1.082415          0.06
     1.082006          0.00
     1.081550          1.53
     1.079764          0.00
     1.079668          0.26
     1.078388          0.08
     1.074453          0.51
     1.070973          2.45
     1.069959          0.85
     1.069559          0.22
     1.068390          0.05
     1.068071          0.16
     1.067199          0.00
     1.066980          0.58
     1.066947          0.29
     1.066459          0.26
     1.066171          1.07
     1.065822          0.19
     1.065401          0.35
     1.064403          0.00
     1.064045          0.00
     1.063651          0.95
     1.063376          0.40
     1.061903          0.00
     1.061438          0.02
     1.060593          0.05
     1.058127          0.12
     1.057082          0.04
     1.056075          0.03
     1.055616          0.00
     1.052249          0.57
     1.050631          0.61
     1.050589          0.04
     1.050396          0.03
     1.049679          0.00
     1.049302          0.00
     1.046084          2.26
     1.045770          0.74
     1.045321          1.25
     1.044441          0.01
     1.044362          0.02
     1.043649          1.11
     1.042177          0.00
     1.037439          0.22
     1.036675          0.20
     1.036587          0.19
     1.036056          0.10
     1.033393          0.19
     1.032973          0.14
     1.032908         10.64
     1.031674          0.05
     1.031073          0.46
     1.030642          0.14
     1.030624          2.55
     1.029979          0.16
     1.028810          0.90
     1.028459          0.18
     1.028226          0.45
     1.028045          0.03
     1.027317          0.02
     1.025523          0.11
     1.024551          0.36
     1.023227          1.60
     1.022557          0.01
     1.020191          0.19
     1.019969          0.23
     1.018745          1.34
     1.018097          1.70
     1.018090          0.01
     1.016848          0.00
     1.015436          0.02
     1.014203          0.01
     1.013807          0.01
     1.012893          1.41
     1.011788          0.26
     1.010955          0.05
     1.010719          0.02
     1.009139          0.40
     1.009039          0.30
     1.008857          0.48
     1.006741          0.03
     1.006527          0.10
##############################################################################
###                            Comments                                    ###
##############################################################################
###   Diffraction pattern calculated by Match!. 
###   I/Ic calculated by Match!. 
##############################################################################


