##############################################################################
###               Crystal structure data exported by Match!                ###
##############################################################################
###                           Data published by:                           ###
###                                                                        ###
###               COD (Crystallography Open Database)
##############################################################################
data_9013409
_citation_journal_full    'Science'
_citation_journal_volume  '107'
_citation_page_first  '602'
_citation_page_last   '602'
_citation_year  '1948'
_citation_title  'Three new polymorphs of zinc sulfide'
loop_
_publ_author_name
  'Frondel C.'
  'Palache C.'
_chemical_formula_sum  'S Zn'
_chemical_name_mineral  'Wurtzite-4H'
_symmetry_space_group_name_H-M 'P 63 m c'
_space_group_IT_number 186
_space_group_crystal_system 'hexagonal'
loop_
_symmetry_equiv_pos_as_xyz
   'x, y, z'
   'x-y, x, z+0.5'
   '-y, x-y, z'
   '-x, -y, z+0.5'
   '-x+y, -x, z'
   'y, -x+y, z+0.5'
   '-x+y, y, z'
   'x, x-y, z'
   '-y, -x, z'
   'y, x, z+0.5'
   'x-y, -y, z+0.5'
   '-x, -x+y, z+0.5'
_cell_length_a        3.81400
_cell_length_b        3.81400
_cell_length_c       12.46000
_cell_angle_alpha    90.0000
_cell_angle_beta     90.0000
_cell_angle_gamma   120.0000
loop_
_atom_site_label
_atom_site_fract_x
_atom_site_fract_y
_atom_site_fract_z
_atom_site_occupancy
_atom_site_B_iso_or_equiv
zn      0.000   0.000   0.000    1.00000    1.000
zn      0.333   0.667   0.250    1.00000    1.000
s      0.000   0.000   0.188    1.00000    1.000
s      0.333   0.667   0.438    1.00000    1.000
_cell_measurement_wavelength    1.541874
_cell_measurement_radiation   'x-rays'
_exptl_crystal_density_diffrn    4.124000
loop_
_pd_peak_d_spacing
_pd_peak_intensity
     3.303021        251.24
     3.192744       1000.00
     3.115000        639.25
     2.918242        815.10
     2.585180        124.29
     2.266193         92.00
     1.989332        300.00
     1.907000        711.71
     1.758066        520.99
     1.651510         26.07
     1.637192        111.77
     1.626421        453.82
     1.596372        114.37
     1.566951         52.91
     1.557500         17.02
     1.534637         21.81
     1.459121         18.42
     1.408739          4.18
     1.376639         73.30
     1.292590        153.86
     1.276822         22.80
     1.248425         16.98
     1.242205         73.46
     1.224089         75.53
     1.210673         18.31
     1.206298         33.26
     1.195582         14.79
     1.165809        102.30
     1.158822         14.46
     1.133097          1.58
     1.116190         64.46
     1.101007         84.81
     1.071473         28.15
     1.069964        151.72
     1.060969         11.21
     1.038333         13.28
     1.038072         79.60
     1.022095         20.07
##############################################################################
###                            Comments                                    ###
##############################################################################
###   Diffraction pattern calculated by Match!. 
###   I/Ic calculated by Match!. 
###   Space group has been derived from given symmetry operations. 
##############################################################################


