##############################################################################
###               Crystal structure data exported by Match!                ###
##############################################################################
###                           Data published by:                           ###
###                                                                        ###
###               COD (Crystallography Open Database)
##############################################################################
data_9000808
_citation_journal_full    'American Mineralogist'
_citation_journal_volume  '66'
_citation_page_first  '324'
_citation_page_last   '333'
_citation_year  '1981'
_citation_title  'High-pressure crystal structure and compressibility of coesiteP = 51.9 kbar'
loop_
_publ_author_name
  'Levien L.'
  'Prewitt C. T.'
_chemical_formula_sum  'O2 Si'
_chemical_name_mineral  'Coesite'
_symmetry_space_group_name_H-M 'C 1 2/c 1'
_space_group_IT_number 15
_space_group_crystal_system 'monoclinic'
loop_
_symmetry_equiv_pos_as_xyz
   'x, y, z'
   'x+0.5, y+0.5, z'
   '-x, y, -z+0.5'
   '-x+0.5, y+0.5, -z+0.5'
   '-x, -y, -z'
   '-x+0.5, -y+0.5, -z'
   'x, -y, z+0.5'
   'x+0.5, -y+0.5, z+0.5'
_cell_length_a        6.98970
_cell_length_b       12.23300
_cell_length_c        7.11120
_cell_angle_alpha    90.0000
_cell_angle_beta    120.7400
_cell_angle_gamma    90.0000
loop_
_atom_site_label
_atom_site_fract_x
_atom_site_fract_y
_atom_site_fract_z
_atom_site_occupancy
_atom_site_B_iso_or_equiv
si      0.137   0.110   0.070    1.00000    0.409
si      0.509   0.157   0.545    1.00000    0.379
o      0.000   0.000   0.000    1.00000    0.940
o      0.500   0.108   0.750    1.00000    0.550
o      0.254   0.130   0.928    1.00000    0.619
o      0.319   0.101   0.325    1.00000    0.739
o      0.028   0.213   0.471    1.00000    0.799
_cell_measurement_wavelength    1.541874
_cell_measurement_radiation   'x-rays'
_cell_measurement_pressure       5190000.000000
_exptl_crystal_density_diffrn    3.055000
loop_
_pd_peak_d_spacing
_pd_peak_intensity
     6.116500         66.84
     5.478522          5.66
     5.392437          5.41
     4.323443         27.96
     3.414289         71.63
     3.394672        138.44
     3.373891        327.02
     3.352019        702.21
     3.063674        957.89
     3.058250       1000.00
     3.056023        780.86
     3.033842        805.87
     3.003808        181.66
     2.739261         10.80
     2.734983         62.90
     2.733788         95.66
     2.696219        103.96
     2.679877        108.68
     2.649448        273.83
     2.301222        125.41
     2.283456         74.78
     2.272165         14.33
     2.265902         29.25
     2.258320          2.74
     2.252193         86.85
     2.240021         64.86
     2.174778         27.90
     2.164424         46.06
     2.161721         22.64
     2.143002         46.22
     2.131960          7.49
     2.038833          0.52
     2.019298         22.98
     2.015536          4.47
     2.014563          8.59
     2.002494        115.09
     2.001853         36.59
     1.997581          4.35
     1.989073          0.53
     1.976235         33.90
     1.934066          0.02
     1.932939          0.29
     1.851786          7.99
     1.826174        102.23
     1.825137         14.85
     1.797479        113.78
     1.777793        154.79
     1.760946        119.35
     1.746967          2.23
     1.742711          0.04
     1.707144          0.05
     1.697336          8.06
     1.696031         63.21
     1.695556         37.37
     1.689689          8.91
     1.687118          8.43
     1.686946         80.50
     1.685109         17.55
     1.680556         14.91
     1.679794         25.08
     1.678017         46.42
     1.676009         28.93
     1.674931          0.72
     1.672427          4.39
     1.669380        128.65
     1.667424          1.06
     1.652181          7.67
     1.628926        168.69
     1.610699          6.85
     1.573845          1.98
     1.571767         12.30
     1.568371         41.55
     1.567913          1.00
     1.562203         32.96
     1.557394         43.03
     1.549639         36.02
     1.543401         17.43
     1.536971         47.87
     1.533444          0.03
     1.531837         36.35
     1.529125         45.66
     1.528011         12.24
     1.518209         12.55
     1.516921         19.44
     1.514132         69.37
     1.501904         26.98
     1.485945          0.23
     1.483406         28.75
     1.482452          2.74
     1.479148          3.72
     1.465460          2.35
     1.458576         14.29
     1.441148          0.11
     1.403515         13.16
     1.400841         21.74
     1.399409          1.73
     1.397948          1.21
     1.396804         10.52
     1.390991          6.10
     1.389555         14.46
     1.387807         27.65
     1.386682          1.18
     1.383202         15.76
     1.377878          1.74
     1.376162         17.22
     1.375727          0.75
     1.373386         36.33
     1.369630          6.38
     1.368175          2.41
     1.367492          7.52
     1.366894          2.14
     1.362716          5.15
     1.353922          1.75
     1.348109          0.05
     1.339938          1.08
     1.334982         15.75
     1.331085        134.59
     1.327850         52.45
     1.326966          2.21
     1.326590         86.55
     1.325715         69.82
     1.324724         52.55
     1.323549         41.48
     1.319849         12.55
     1.317466          2.21
     1.316696         31.35
     1.311379         57.47
     1.310304         72.89
     1.308976         43.59
     1.305288          3.71
     1.301104         70.21
     1.291758         12.35
     1.282283         66.24
     1.281887          3.97
     1.277881         24.64
     1.272197         44.77
     1.269616         93.17
     1.269024          7.54
     1.266337          6.83
     1.265613         56.69
     1.264191          4.16
     1.262377          8.75
     1.249619          0.16
     1.228465          0.44
     1.224687          2.48
     1.223494          4.38
     1.223300          5.98
     1.222979         57.54
     1.222730          6.98
     1.220772          0.06
     1.219801         11.76
     1.219366         16.35
     1.213047          5.14
     1.209968          1.09
     1.209228         43.18
     1.206399          0.93
     1.205284          0.06
     1.205247          7.18
     1.203381         40.94
     1.199511          0.51
     1.198704          9.43
     1.195769         18.30
     1.179671         34.95
     1.174618         30.79
     1.173615          3.31
     1.173325          1.90
     1.169873         26.88
     1.169430         26.80
     1.169019         44.19
     1.167306          0.12
     1.166876         33.01
     1.163414          0.29
     1.162154          5.49
     1.160749          0.46
     1.159288         15.18
     1.156777          0.24
     1.156603          0.01
     1.154578          1.29
     1.152531         29.17
     1.150611          4.67
     1.149393         15.20
     1.148907          0.07
     1.147562          0.16
     1.145681          2.04
     1.144089         16.05
     1.142922          1.01
     1.141728          0.28
     1.139273          1.10
     1.138096          4.41
     1.137304         11.52
     1.136083          2.02
     1.135691          1.16
     1.135092          4.95
     1.133862          0.75
     1.132951          4.40
     1.131557          0.92
     1.129160          1.08
     1.127661          0.84
     1.126097          1.21
     1.124630          4.67
     1.120640         40.38
     1.120010          2.01
     1.118139          2.64
     1.117340          9.85
     1.102959         12.41
     1.099093          0.18
     1.098697         18.93
     1.096971          0.11
     1.095704          7.19
     1.094215          2.86
     1.093513          0.09
     1.089268         12.45
     1.088870          3.01
     1.088394          2.20
     1.087389          0.03
     1.086360          2.06
     1.085426         18.12
     1.084062         13.60
     1.082778          6.54
     1.082212          0.37
     1.080861          0.07
     1.079468         15.56
     1.078487         13.61
     1.077374          5.40
     1.075517          2.67
     1.074995          0.26
     1.072868          3.08
     1.071501          0.52
     1.067601          1.09
     1.066632         23.95
     1.065980          0.16
     1.065235          3.27
     1.063638         22.71
     1.063303          0.77
     1.063078         19.63
     1.062893         11.79
     1.062437         21.06
     1.061386          3.53
     1.059468          6.79
     1.059044          6.44
     1.057964          0.44
     1.057146          0.42
     1.056283          0.02
     1.053546          0.72
     1.049619          1.10
     1.049489          2.59
     1.048769          7.27
     1.048409          2.99
     1.043253          1.79
     1.037335         21.40
     1.032315          0.00
     1.027891          6.79
     1.021225          0.05
     1.019417          0.08
     1.018674          3.86
     1.018444          0.07
     1.011281          4.04
     1.010475          0.05
     1.009649          0.13
     1.008582         17.31
     1.008409          6.92
     1.007768          3.28
     1.007281          0.18
##############################################################################
###                            Comments                                    ###
##############################################################################
###   Diffraction pattern calculated by Match!. 
###   I/Ic calculated by Match!. 
###   Space group has been derived from given symmetry operations. 
##############################################################################


