##############################################################################
###               Crystal structure data exported by Match!                ###
##############################################################################
###                           Data published by:                           ###
###                                                                        ###
###               COD (Crystallography Open Database)
##############################################################################
data_4124046
_citation_journal_full    'Journal of the American Chemical Society'
_citation_journal_volume  '126'
_citation_page_first  '9769'
_citation_page_last   '9775'
_citation_year  '2004'
_citation_title  'Chemical evaluation of hypothetical uninodal zeolites'
loop_
_publ_author_name
  'Foster M.D.'
  'Friedrichs O.D.'
  'Paz F.A.A.'
  'Bell R.G.'
  'Klinowski J.'
_chemical_formula_sum  'O2 Si'
_chemical_name_common  'Silica'
_symmetry_space_group_name_H-M 'I 41/a m d'
_space_group_IT_number 141
_space_group_crystal_system 'tetragonal'
loop_
_symmetry_equiv_pos_as_xyz
   'x, y, z'
   'x+0.5, y+0.5, z+0.5'
   '-x, -y+0.5, -z+0.25'
   '-x+0.5, -y, -z+0.75'
   '-y, x+0.5, z+0.25'
   '-y+0.5, x, z+0.75'
   '-x, -y, z'
   '-x+0.5, -y+0.5, z+0.5'
   'y, -x+0.5, z+0.25'
   'y+0.5, -x, z+0.75'
   'y, -x, -z'
   'y+0.5, -x+0.5, -z+0.5'
   '-y, x, -z'
   '-y+0.5, x+0.5, -z+0.5'
   'x, -y+0.5, -z+0.25'
   'x+0.5, -y, -z+0.75'
   '-x, y+0.5, -z+0.25'
   '-x+0.5, y, -z+0.75'
   'y, x, -z'
   'y+0.5, x+0.5, -z+0.5'
   '-y, -x, -z'
   '-y+0.5, -x+0.5, -z+0.5'
   'x, y+0.5, -z+0.25'
   'x+0.5, y, -z+0.75'
   '-x, y, z'
   '-x+0.5, y+0.5, z+0.5'
   'x, -y, z'
   'x+0.5, -y+0.5, z+0.5'
   '-y, -x+0.5, z+0.25'
   '-y+0.5, -x, z+0.75'
   'y, x+0.5, z+0.25'
   'y+0.5, x, z+0.75'
_cell_length_a        9.05660
_cell_length_b        9.05660
_cell_length_c       20.39384
_cell_angle_alpha    90.0000
_cell_angle_beta     90.0000
_cell_angle_gamma    90.0000
_cell_formula_units_Z 32
loop_
_atom_site_label
_atom_site_fract_x
_atom_site_fract_y
_atom_site_fract_z
_atom_site_occupancy
_atom_site_B_iso_or_equiv
si      0.331   0.173   0.058    1.00000    1.000
o      0.500   0.286   0.207    1.00000    1.000
o      0.723   0.750   0.125    1.00000    1.000
o      0.692   0.500   0.183    1.00000    1.000
o      0.271   0.271   0.500    1.00000    1.000
_cell_measurement_wavelength    1.541874
_cell_measurement_radiation   'x-rays'
_exptl_crystal_density_diffrn    1.908000
loop_
_pd_peak_d_spacing
_pd_peak_intensity
     8.277129        405.72
     5.436773        815.33
     5.423166        231.18
     5.098460         26.32
     4.528300       1000.00
     4.138565          1.06
     3.972647         33.75
     3.719009        329.67
     3.479474        109.39
     3.385702          2.14
     3.201992         44.24
     3.002297         27.92
     2.986325         32.13
     2.873983         91.91
     2.773435         37.45
     2.759043        263.92
     2.757260        158.77
     2.718387          7.66
     2.711583          2.08
     2.549230         56.61
     2.496970          2.48
     2.493010          0.02
     2.426527         32.77
     2.365094          5.98
     2.356149         28.72
     2.264150         25.78
     2.221414          0.53
     2.210318          3.24
     2.198221          1.02
     2.190141         49.82
     2.183917          1.72
     2.138807          1.13
     2.096381         40.54
     2.090144          0.03
     2.089369         24.68
     2.069282          0.26
     2.025117         20.18
     1.994365         42.13
     1.986323          0.14
     1.977530          0.08
     1.943228         11.68
     1.933940          1.05
     1.904163          4.35
     1.902405          0.41
     1.884355          0.06
     1.882085          0.12
     1.859505         10.70
     1.816318          6.34
     1.812258          2.72
     1.807722         18.46
     1.804218          6.66
     1.753912          0.46
     1.750255         73.22
     1.749799         33.74
     1.739737          2.96
     1.699487          4.54
     1.692851         26.87
     1.685767          0.10
     1.682519          0.42
     1.677281          0.10
     1.676079          0.84
     1.661240         37.13
     1.655426         46.11
     1.632551         15.51
     1.600996         16.01
     1.591120          1.84
     1.585671         35.08
     1.579844         18.17
     1.577170          0.01
     1.574177         13.28
     1.554789          2.11
     1.545739         20.23
     1.538260          9.92
     1.535484         14.94
     1.527458          0.31
     1.515313          0.59
     1.509433         22.13
     1.501149          0.15
     1.493163          0.52
     1.491668          0.71
     1.485779          1.07
     1.484944          0.89
     1.474595         21.31
     1.462860         15.94
     1.461532          1.30
     1.457305          0.69
     1.456516          0.14
     1.454420         11.89
     1.447336          0.85
     1.436992          2.13
     1.431974          5.82
     1.420419          0.62
     1.418060          0.01
     1.416779          2.02
     1.414850          0.11
     1.412688         13.58
     1.411014          0.45
     1.398625         13.60
     1.392026         12.90
     1.386718          0.22
     1.384748          1.93
     1.379522          0.16
     1.378630          1.19
     1.359193          0.01
     1.355791          0.23
     1.350466          0.05
     1.347130          7.49
     1.344523          1.66
     1.339389         13.47
     1.336336          2.49
     1.330577          8.09
     1.326392          1.94
     1.325797          1.88
     1.324216         21.37
     1.319643          0.08
     1.301815          0.18
     1.298826         64.63
     1.298399          2.34
     1.295618          4.76
     1.291204          1.20
     1.288909          0.09
     1.281690         34.12
     1.276607          0.07
     1.274615         14.22
     1.272384          0.66
     1.270986          0.17
     1.270811          6.89
     1.255924          7.40
     1.248485         40.98
     1.246505          0.91
     1.245635          0.64
     1.244323          0.20
     1.242200          0.13
     1.241712          1.09
     1.239670         11.55
     1.235642         14.94
     1.233243          6.94
     1.227925          0.04
     1.226937         18.41
     1.225057          0.12
     1.224946         13.89
     1.223698          0.33
     1.219470          0.02
     1.213263          0.42
     1.203239          2.07
     1.199848          0.01
     1.198529          4.92
     1.195674          1.74
     1.189905         12.09
     1.189250          0.08
     1.185834         15.24
     1.184237          7.28
     1.182547          0.01
     1.182447          0.15
     1.181184         11.74
     1.178075          0.56
     1.171928          1.27
     1.165339          0.59
     1.164494          0.74
     1.160887          5.71
     1.159825          0.85
     1.158105          0.00
     1.157709          0.47
     1.156054          0.06
     1.150244          0.28
     1.147152         12.92
     1.146511          1.54
     1.144467          0.61
     1.144085          1.57
     1.143068          7.37
     1.132075          1.35
     1.128567          1.72
     1.126618          0.08
     1.126339          0.63
     1.125162          0.25
     1.124522          1.90
     1.123557          0.19
     1.122473          2.06
     1.121633          0.13
     1.115665          0.93
     1.115380         14.91
     1.114840          0.10
     1.110707          0.00
     1.108303          6.04
     1.105159          0.06
     1.099111          1.81
     1.098274          0.17
     1.095070          2.13
     1.091959          0.00
     1.091374         13.51
     1.090491          0.00
     1.087355          2.15
     1.084633          6.51
     1.083010          3.64
     1.082516          0.00
     1.079938          3.28
     1.078731          0.88
     1.077697          0.00
     1.077378          2.42
     1.074067          0.28
     1.073646          0.02
     1.069403          0.00
     1.067331         11.01
     1.065900          0.76
     1.062520          1.39
     1.060994          0.86
     1.058566          0.73
     1.057300          0.04
     1.053545          5.91
     1.052850          0.00
     1.050478          0.00
     1.048190          0.17
     1.048121          0.47
     1.047339          0.65
     1.047241          1.89
##############################################################################
###                            Comments                                    ###
##############################################################################
###   Diffraction pattern calculated by Match!. 
###   I/Ic calculated by Match!. 
###   Space group has been derived from given symmetry operations. 
##############################################################################


