##############################################################################
###               Crystal structure data exported by Match!                ###
##############################################################################
###                           Data published by:                           ###
###                                                                        ###
###               COD (Crystallography Open Database)
##############################################################################
data_1531390
_citation_journal_full    'Zeitschrift fuer Anorganische und Allgemeine Chemie'
_citation_journal_volume  '627'
_citation_page_first  '1357'
_citation_page_last   '1364'
_citation_year  '2001'
_citation_title  'Neue Erdalkalimetall-Phosphide und -Arsenide des Cobalts'
loop_
_publ_author_name
  'Hellmann A.'
  'Mewis A.'
_chemical_formula_sum  'As7 Co12 Mg2'
_chemical_name_common  'Mg2 Co12 As7'
_symmetry_space_group_name_H-M 'P n m a'
_space_group_IT_number 62
_space_group_crystal_system 'orthorhombic'
loop_
_symmetry_equiv_pos_as_xyz
   'x, y, z'
   '-x+0.5, -y, z+0.5'
   'x+0.5, -y+0.5, -z+0.5'
   '-x, y+0.5, -z'
   '-x, -y, -z'
   'x+0.5, y, -z+0.5'
   '-x+0.5, y+0.5, z+0.5'
   'x, -y+0.5, z'
_cell_length_a       12.09600
_cell_length_b        3.67000
_cell_length_c       24.93000
_cell_angle_alpha    90.0000
_cell_angle_beta     90.0000
_cell_angle_gamma    90.0000
_cell_formula_units_Z 4
loop_
_atom_site_label
_atom_site_fract_x
_atom_site_fract_y
_atom_site_fract_z
_atom_site_occupancy
_atom_site_B_iso_or_equiv
co      0.476   0.250   0.186    1.00000    1.000
co      0.921   0.250   0.152    1.00000    1.000
co      0.194   0.250   0.090    1.00000    1.000
as      0.380   0.250   0.105    1.00000    1.000
as      0.127   0.250   0.900    1.00000    1.000
as      0.373   0.250   0.969    1.00000    1.000
mg      0.714   0.250   0.821    1.00000    1.000
co      0.672   0.250   0.961    1.00000    1.000
co      0.940   0.250   0.878    1.00000    1.000
co      0.493   0.250   0.892    1.00000    1.000
co      0.188   0.250   0.986    1.00000    1.000
co      0.206   0.250   0.811    1.00000    1.000
as      0.108   0.250   0.175    1.00000    1.000
co      0.509   0.250   0.036    1.00000    1.000
mg      0.692   0.250   0.114    1.00000    1.000
as      0.873   0.250   0.965    1.00000    1.000
co      0.984   0.250   0.045    1.00000    1.000
as      0.861   0.250   0.241    1.00000    1.000
as      0.398   0.250   0.811    1.00000    1.000
co      0.670   0.250   0.239    1.00000    1.000
co      0.997   0.250   0.771    1.00000    1.000
_cell_measurement_wavelength    1.541874
_cell_measurement_radiation   'x-rays'
_exptl_crystal_density_diffrn    7.682000
loop_
_pd_peak_d_spacing
_pd_peak_intensity
    12.465000         39.03
    10.882655         31.53
     8.680685          5.41
     6.849374         56.84
     6.232500         37.01
     6.048000        247.76
     5.877514          0.04
     5.540305        264.90
     5.441328          4.39
     4.890014          8.85
     4.609734          4.51
     4.340343         54.78
     4.155000          0.01
     3.980279         60.80
     3.929627         37.87
     3.847191          4.56
     3.836296          0.35
     3.630868         14.93
     3.627552         11.47
     3.477577        173.23
     3.424687          2.11
     3.416422          6.57
     3.385344          6.81
     3.380313          0.07
     3.357178         68.22
     3.234895         65.21
     3.137530         43.59
     3.135169          0.02
     3.116250          0.19
     3.112974          3.65
     3.068878        184.63
     3.059610         22.55
     3.042625          0.02
     3.024000         99.91
     3.017714          4.38
     3.001995          6.60
     2.955657          6.79
     2.938757          0.63
     2.935283         14.56
     2.893562          8.70
     2.871185          0.11
     2.841696          1.09
     2.802455          7.46
     2.770153          0.69
     2.720664          0.01
     2.700106          0.04
     2.698115          1.33
     2.682173          9.96
     2.669252          1.67
     2.655514          2.26
     2.651923          1.89
     2.585617          0.06
     2.579943         64.78
     2.555832         67.28
     2.518425          0.85
     2.503855          3.89
     2.500620          3.98
     2.493000          3.66
     2.488356         73.52
     2.465660          0.10
     2.445007          0.31
     2.441681         23.91
     2.407889          2.68
     2.383779          1.96
     2.374886          0.08
     2.354247       1000.00
     2.333803        428.90
     2.330910        101.89
     2.323643         69.28
     2.322774         17.78
     2.305131         64.21
     2.304867         12.30
     2.293943          0.26
     2.283125          0.31
     2.272253        141.72
     2.255261         18.62
     2.246876        224.06
     2.227600         33.16
     2.211007         13.23
     2.210929          0.25
     2.185598         11.81
     2.176531         10.03
     2.174897         11.54
     2.170171          8.20
     2.158675         19.10
     2.122251          3.89
     2.120417          1.35
     2.113714         99.90
     2.090650          2.73
     2.077500          5.62
     2.076528          2.22
     2.047520          0.23
     2.046652         24.68
     2.042590          0.35
     2.034793          7.11
     2.032875         80.02
     2.016000         51.68
     2.013249         46.81
     2.009440          0.47
     2.001172         17.61
     1.993839          0.21
     1.990139         16.61
     1.975650        115.80
     1.964814         36.62
     1.962700          4.34
     1.959171         16.66
     1.952022        391.58
     1.951862         38.74
     1.938604          0.03
     1.928312        179.50
     1.923596          0.17
     1.921460        357.49
     1.918148         79.85
     1.910952         27.84
     1.904266        356.39
     1.894037         71.21
     1.872067         47.78
     1.869004          0.19
     1.868016          0.17
     1.846768          8.76
     1.837191          0.37
     1.836001          6.48
     1.835000        662.08
     1.828000          0.56
     1.822116          9.56
     1.816575        144.81
     1.815434          0.58
     1.813776         46.74
     1.813562         26.35
     1.809457          0.61
     1.795326          0.16
     1.788067          6.40
     1.784780          6.10
     1.780714        214.55
     1.772492          2.68
     1.766959         54.28
     1.762538          3.02
     1.761726          4.04
     1.760289          2.17
     1.756950         21.41
     1.755957         14.92
     1.754417        380.67
     1.751617          0.00
     1.749470         15.27
     1.741941         18.79
     1.739602        101.60
     1.738789          0.35
     1.736137          4.56
     1.732191         54.29
     1.731793          0.72
     1.728321          6.04
     1.723864         19.02
     1.718020          0.84
     1.712344          8.14
     1.711631          0.57
     1.708211          4.40
     1.704887          0.46
     1.703750         12.45
     1.699961         68.91
     1.699644          1.12
     1.694946         48.74
     1.692672          8.73
     1.691810          2.32
     1.690156          6.29
     1.683110         14.03
     1.678589          0.00
     1.666432          8.14
     1.665470         13.48
     1.665183          0.88
     1.662656          5.34
     1.656247          0.63
     1.655374          0.05
     1.653955          5.60
     1.649678         12.93
     1.646530          0.63
     1.637424          1.85
     1.636259          0.47
     1.632726          1.42
     1.632035          3.49
     1.630005          0.32
     1.628925          7.75
     1.626034          0.11
     1.625880         62.66
     1.619499          0.48
     1.617448          0.43
     1.616575          1.13
     1.613247          1.15
     1.602591          2.86
     1.595520          0.00
     1.588216          0.07
     1.583680          0.00
     1.582854          0.12
     1.581225          0.03
     1.576099          0.06
     1.574930         47.75
     1.569390          1.78
     1.568765         26.30
     1.567886          1.15
     1.567584          3.60
     1.566180         29.42
     1.565668          1.75
     1.560307         23.51
     1.558125          2.32
     1.556487          0.17
     1.554665         10.27
     1.551749          1.08
     1.551219          4.40
     1.549659          2.29
     1.548672          4.52
     1.545357          2.79
     1.541537          0.36
     1.537064          0.48
     1.536578          0.01
     1.536419          7.26
     1.534439         25.56
     1.529805          0.22
     1.521313          0.01
     1.517690          0.02
     1.516393          0.72
     1.513988          0.32
     1.512146          0.39
     1.512000         18.84
     1.511212          1.30
     1.509227          1.46
     1.508857          0.53
     1.507899          8.91
     1.506297          0.74
     1.502805          1.56
     1.502267          1.32
     1.500998          0.89
     1.496443          0.02
     1.491760          0.40
     1.489684          1.39
     1.488859          0.99
     1.487577          0.08
     1.483073          0.32
     1.481652          2.91
     1.477829          1.26
     1.472072          0.01
     1.469378          3.51
     1.468671          2.77
     1.467641          0.12
     1.466921          7.88
     1.466114          0.00
     1.463223          0.14
     1.459495          0.87
     1.456515          8.68
     1.455811          1.14
     1.453379          1.99
     1.452049          0.03
     1.448200          0.45
     1.446933          0.59
     1.446781          2.94
     1.441586          0.00
     1.439889          6.12
     1.435656         22.71
     1.435592          4.09
     1.434099          1.95
     1.431519          2.41
     1.430293          0.10
     1.425174          3.66
     1.424243          0.17
     1.423366          6.60
     1.420848          4.00
     1.420194          2.51
     1.417362          6.81
     1.416334         12.27
     1.415682         11.01
     1.402935          3.80
     1.401227          3.08
     1.398003          2.71
     1.397380          1.14
     1.395810          0.42
     1.395517          0.09
     1.393491          0.18
     1.391766          5.90
     1.390725          2.40
     1.389468          0.01
     1.389292          2.77
     1.388075          1.72
     1.387562          0.49
     1.385076          3.65
     1.385000          1.97
     1.379119          1.05
     1.378630          2.44
     1.378148          1.96
     1.376009          9.03
     1.375324          2.25
     1.374142          3.17
     1.369875          9.20
     1.366520          0.10
     1.365051          0.11
     1.364107          0.03
     1.361779          1.26
     1.361494          0.02
     1.360332          0.87
     1.357028         21.42
     1.355022          0.18
     1.353796          0.01
     1.353231          4.23
     1.352478          7.63
     1.351277          0.12
     1.350053          4.67
     1.349057          7.41
     1.346092          1.39
     1.345969          1.11
     1.344517         50.09
     1.342051          1.13
     1.341087         16.10
     1.339288          7.49
     1.336255          0.04
     1.335740          1.66
     1.334626         10.99
     1.328519          0.55
     1.328508          0.14
     1.327757          0.05
     1.327158          2.51
     1.326760          0.41
     1.325962         37.30
     1.325013          0.49
     1.324483          4.48
     1.323578         13.25
     1.319501          5.67
     1.317918         34.35
     1.313800         14.43
     1.309940          0.02
     1.309876          7.47
     1.309398          0.10
     1.304453          0.32
     1.301682          4.20
     1.301334         10.29
     1.299454          0.09
     1.297682          4.08
     1.295860          2.16
     1.295059          0.31
     1.292962          4.98
     1.292808          0.03
     1.290180          5.42
     1.289972         24.38
     1.289895         12.92
     1.288425          2.07
     1.286892          2.22
     1.283721          5.30
     1.283385          0.00
     1.282397          1.05
     1.282276          0.68
     1.278765          0.09
     1.277916        116.87
     1.275528          3.21
     1.270843          2.21
     1.268092        212.71
     1.267043          8.55
     1.261137          2.58
     1.260421          0.16
     1.259469          0.31
     1.259212          3.23
     1.257781          0.01
     1.257441          4.00
     1.256409         10.11
     1.255616          0.61
     1.254264         14.94
     1.254056          1.45
     1.251928          4.45
     1.251649          0.28
     1.250310          2.47
     1.249182          0.27
     1.248059          0.29
     1.247728          9.09
     1.247702          0.32
     1.246500          0.17
     1.244178          5.35
     1.243836          1.22
     1.241685          0.80
     1.240098          1.11
     1.239934          0.12
     1.236931         10.52
     1.235516          0.86
     1.234114          2.04
     1.233708          3.79
     1.233654          5.45
     1.233138          0.52
     1.232830          2.80
     1.229121          0.49
     1.228557          3.30
     1.225505          0.49
     1.223452         12.74
     1.222504          2.63
     1.221863          0.40
     1.220840          0.10
     1.219781          0.86
     1.219365          1.39
     1.218645          0.25
     1.218194          4.56
     1.215677          5.17
     1.214237          0.34
     1.211731         17.25
     1.211364          0.00
     1.210617         15.52
     1.210515          9.55
     1.210289          2.31
     1.209600         12.02
     1.209184          2.32
     1.208179          4.43
     1.207560          0.54
     1.207061          1.81
     1.204276          2.42
     1.204031          0.01
     1.203945          0.00
     1.203682          2.79
     1.201960         16.97
     1.199051          1.99
     1.197865          0.66
     1.197666          0.13
     1.196986          0.85
     1.195619          0.03
     1.194559          1.34
     1.193541          0.01
     1.191889          2.49
     1.191055          2.21
     1.190889          3.17
     1.189843          0.16
     1.189555          4.05
     1.188095          0.36
     1.187716          1.60
     1.187443          0.57
     1.187335          0.45
     1.186760          0.59
     1.186688          2.93
     1.186181          6.81
     1.185907          6.15
     1.183033          0.86
     1.182405          0.02
     1.182031          1.89
     1.181466          0.02
     1.181300          0.01
     1.178089          0.03
     1.177458          0.71
     1.177124         19.48
     1.175503          0.80
     1.174840         10.58
     1.174701          0.06
     1.169748          0.82
     1.169349          0.21
     1.168655          2.44
     1.168042          0.79
     1.166901         14.29
     1.166539          0.93
     1.165814          0.09
     1.165625          1.21
     1.165509          0.14
     1.165455          0.34
     1.164914         23.61
     1.164274          0.56
     1.162659          0.92
     1.161822          0.68
     1.161387          3.21
     1.159847          1.18
     1.159192          4.08
     1.158427          0.21
     1.157171          3.13
     1.156981          4.25
     1.156015          2.45
     1.155564          0.09
     1.153383          0.38
     1.152565         26.44
     1.152434          0.65
     1.152040          0.16
     1.151724          0.21
     1.150519          4.71
     1.148810         14.35
     1.148454          0.92
     1.147593          2.99
     1.146971          2.51
     1.145417          0.00
     1.145342         26.40
     1.143962          6.27
     1.143737         37.97
     1.142259         51.00
     1.141562          0.01
     1.140822          6.47
     1.140483          0.90
     1.139648          0.12
     1.139313          1.57
     1.138807          0.55
     1.138743         13.47
     1.137988         26.15
     1.136374         60.48
     1.136200          0.41
     1.136126          2.15
     1.134052         26.32
     1.133719          7.06
     1.133182          3.18
     1.132880          4.57
     1.132745         26.61
     1.129954          1.58
     1.129778         24.65
     1.129685          0.56
     1.129520          1.98
     1.129387          0.02
     1.128455          9.61
##############################################################################
###                            Comments                                    ###
##############################################################################
###   Diffraction pattern calculated by Match!. 
###   I/Ic calculated by Match!. 
##############################################################################


