##############################################################################
###               Crystal structure data exported by Match!                ###
##############################################################################
###                           Data published by:                           ###
###                                                                        ###
###               COD (Crystallography Open Database)
##############################################################################
data_9007171
_citation_journal_full    'Physics and Chemistry of Minerals'
_citation_journal_volume  '30'
_citation_page_first  '167'
_citation_page_last   '176'
_citation_year  '2003'
_citation_title  'Compression mechanisms of coesiteSample: X4P1, P = 8.68 GPa'
loop_
_publ_author_name
  'Angel R. J.'
  'Shaw C. S. J.'
  'Gibbs G. V.'
_chemical_formula_sum  'O2 Si'
_chemical_name_mineral  'Coesite'
_symmetry_space_group_name_H-M 'C 1 2/c 1'
_space_group_IT_number 15
_space_group_crystal_system 'monoclinic'
loop_
_symmetry_equiv_pos_as_xyz
   'x, y, z'
   'x+0.5, y+0.5, z'
   '-x, y, -z+0.5'
   '-x+0.5, y+0.5, -z+0.5'
   '-x, -y, -z'
   '-x+0.5, -y+0.5, -z'
   'x, -y, z+0.5'
   'x+0.5, -y+0.5, z+0.5'
_cell_length_a        6.88860
_cell_length_b       12.13770
_cell_length_c        7.06250
_cell_angle_alpha    90.0000
_cell_angle_beta    120.9620
_cell_angle_gamma    90.0000
loop_
_atom_site_label
_atom_site_fract_x
_atom_site_fract_y
_atom_site_fract_z
_atom_site_occupancy
_atom_site_B_iso_or_equiv
si      0.135   0.111   0.069    1.00000    0.370
si      0.509   0.156   0.546    1.00000    0.420
o      0.000   0.000   0.000    1.00000    0.870
o      0.500   0.105   0.750    1.00000    0.660
o      0.245   0.133   0.920    1.00000    0.640
o      0.323   0.099   0.324    1.00000    0.750
o      0.033   0.212   0.469    1.00000    0.630
_cell_measurement_wavelength    1.541874
_cell_measurement_radiation   'x-rays'
_cell_measurement_pressure       8680000.000000
_exptl_crystal_density_diffrn    3.153000
loop_
_pd_peak_d_spacing
_pd_peak_intensity
     6.068850         72.76
     5.427291          4.55
     5.311433          4.14
     4.286830         16.60
     3.390661         75.98
     3.366189        135.37
     3.337992        271.56
     3.306367        667.35
     3.034425       1000.00
     3.033828        917.41
     3.028078        738.46
     2.994393        790.48
     2.953517        190.14
     2.713645          6.23
     2.712934         61.28
     2.709528        101.35
     2.660435        114.45
     2.655716         79.98
     2.619127        248.55
     2.276370        137.80
     2.267199         97.55
     2.253853         22.60
     2.245331         32.81
     2.229361          0.84
     2.224798        100.62
     2.204885         76.55
     2.158671         28.05
     2.145452         54.17
     2.143415         22.20
     2.116478         35.77
     2.100837         14.66
     2.022950          1.31
     2.004626         21.76
     2.000445          5.95
     1.995044          9.91
     1.982705        122.65
     1.978328         42.25
     1.975137          2.09
     1.961165          0.78
     1.943603         38.10
     1.918736          0.01
     1.915525          0.04
     1.837875          6.69
     1.809097        111.52
     1.801788         12.66
     1.770478        123.86
     1.765621        144.21
     1.744119        128.19
     1.721311          2.65
     1.718159          0.08
     1.695331          0.01
     1.683094          7.61
     1.682110         69.87
     1.680756         37.80
     1.676446          9.45
     1.674504         10.80
     1.672597         24.48
     1.668996         63.59
     1.667217         12.48
     1.663758         37.34
     1.657229          1.45
     1.655990         19.14
     1.655353          4.07
     1.653183         26.85
     1.650428        122.25
     1.647101          0.44
     1.625918          8.40
     1.609696        163.99
     1.585284          6.16
     1.561520          1.28
     1.559950          9.93
     1.556441         42.76
     1.553893          1.08
     1.548041         27.26
     1.540430         39.28
     1.529214         36.77
     1.526081         51.35
     1.521791          0.94
     1.520444         24.60
     1.517213         45.40
     1.516914         30.54
     1.514039          9.54
     1.501114         19.51
     1.497197         11.96
     1.495122         58.23
     1.476759         20.91
     1.471731         29.60
     1.471640          1.47
     1.469014          1.50
     1.462723          2.46
     1.444332          4.07
     1.434889         12.32
     1.428943          0.00
     1.393587         12.77
     1.388462          2.13
     1.388362         19.54
     1.387358          2.15
     1.386273          9.12
     1.377486          5.60
     1.376407         14.68
     1.373573         27.45
     1.371653          1.78
     1.366163          1.97
     1.364352         14.80
     1.359347          2.19
     1.356983          4.46
     1.356823          7.37
     1.356467          9.82
     1.354944         15.88
     1.354764          3.00
     1.352893         36.94
     1.349562          3.58
     1.336609          1.27
     1.330218          1.55
     1.327858          0.24
     1.325448         14.81
     1.320759        142.57
     1.316506          3.73
     1.316409         54.25
     1.314801         70.36
     1.310957         83.95
     1.309564         48.15
     1.308271         43.88
     1.305505         11.87
     1.301303         35.75
     1.300220          2.37
     1.299605         70.82
     1.292069         60.83
     1.290291         46.88
     1.287628         74.34
     1.283829          3.28
     1.275029         12.85
     1.272834          2.23
     1.268095         26.04
     1.262325         45.37
     1.261877         72.44
     1.259878         95.26
     1.256057          5.52
     1.255410          8.73
     1.251409         60.74
     1.248987          7.47
     1.248831          3.98
     1.229966          0.44
     1.218490          0.74
     1.214629          3.37
     1.213770          4.35
     1.213617          1.60
     1.212854         61.67
     1.212143          4.31
     1.211232          0.87
     1.210498          9.09
     1.207511         13.74
     1.201309          4.94
     1.195126          0.79
     1.192757         43.46
     1.191757          1.98
     1.190103          0.75
     1.188787          5.01
     1.187805          6.06
     1.187401         41.56
     1.187231          0.30
     1.175850         16.34
     1.171584         33.74
     1.165498         33.59
     1.164392          3.63
     1.162371          3.92
     1.159170         21.03
     1.158528         40.49
     1.156890         24.49
     1.155688          0.00
     1.154976         34.70
     1.154862          0.00
     1.153909          5.25
     1.152399          1.29
     1.150722         17.85
     1.144706          1.44
     1.140373          0.17
     1.139885          0.55
     1.138185          2.98
     1.137273         11.62
     1.134503          1.74
     1.134494          0.19
     1.134049         26.25
     1.133972          0.42
     1.133600          0.57
     1.131570          2.32
     1.130220          3.93
     1.127560         12.19
     1.126927          1.84
     1.126631          1.67
     1.124924          4.13
     1.122817          2.14
     1.122665          2.72
     1.122063          1.01
     1.121095          0.09
     1.119643          7.96
     1.114680          0.27
     1.114434          0.64
     1.112664          3.86
     1.112399          1.03
     1.111602         41.36
     1.102443          1.23
     1.102122          5.99
     1.101062          2.37
     1.090620         17.34
     1.089834          0.05
     1.088234          0.01
     1.087716         12.80
     1.085622          2.31
     1.085458          6.66
     1.084665          0.01
     1.079335          0.04
     1.078557          3.11
     1.077774         12.21
     1.076435          3.02
     1.074446          4.35
     1.073351          1.41
     1.072726          0.46
     1.071796         19.02
     1.071707          0.14
     1.070781         17.70
     1.067440         15.70
     1.067094          7.55
     1.062287         12.39
     1.062223          2.56
     1.060249          2.93
     1.059138         24.33
     1.058239          0.91
     1.057423          0.56
     1.056302          3.33
     1.054845          0.26
     1.054776         16.69
     1.054635         11.85
     1.054292         22.44
     1.053207          4.25
     1.051618          1.85
     1.050593          5.35
     1.050419          0.03
     1.048244          5.25
     1.048204          0.71
     1.046820          0.35
     1.046237         21.92
     1.045310          0.00
     1.041841          0.61
     1.040222          7.85
     1.039197          1.85
     1.035910          4.36
     1.035544          1.03
     1.029748         19.05
     1.026713          1.46
     1.021107          0.00
     1.016914          6.67
     1.011475          0.13
     1.011276          0.29
     1.009359          4.75
##############################################################################
###                            Comments                                    ###
##############################################################################
###   Diffraction pattern calculated by Match!. 
###   I/Ic calculated by Match!. 
###   Space group has been derived from given symmetry operations. 
##############################################################################


