##############################################################################
###               Crystal structure data exported by Match!                ###
##############################################################################
###                           Data published by:                           ###
###                                                                        ###
###               COD (Crystallography Open Database)
##############################################################################
data_1010956
_citation_journal_full    'Zeitschrift fuer Kristallographie, Kristallgeometrie, Kristallphysik,Kristallchemie (-144,1977)'
_citation_journal_volume  '84'
_citation_page_first  '299'
_citation_page_last   '309'
_citation_year  '1933'
_citation_title  'The crystal structure of Cerussite'
loop_
_publ_author_name
  'Colby M Y'
  'LaCoste L J B'
_chemical_formula_sum  'C O3 Pb'
_chemical_name_mineral  'Cerussite'
_chemical_name_common  'Lead carbonate'
_symmetry_space_group_name_H-M 'P m c n S2'
_space_group_IT_number 62
_space_group_crystal_system 'orthorhombic'
loop_
_symmetry_equiv_pos_as_xyz
   'x, y, z'
   '-x, -y+0.5, z+0.5'
   'x+0.5, -y, -z+0.5'
   '-x+0.5, y+0.5, -z'
   '-x+0.5, -y, -z+0.5'
   'x+0.5, y+0.5, -z'
   '-x, y, z'
   'x, -y+0.5, z+0.5'
_cell_length_a        5.16600
_cell_length_b        8.46800
_cell_length_c        6.14600
_cell_angle_alpha    90.0000
_cell_angle_beta     90.0000
_cell_angle_gamma    90.0000
_cell_formula_units_Z 4
loop_
_atom_site_label
_atom_site_fract_x
_atom_site_fract_y
_atom_site_fract_z
_atom_site_occupancy
_atom_site_B_iso_or_equiv
pb      0.000   0.417   0.000    1.00000    1.000
c      0.000   0.764   0.153    1.00000    1.000
o      0.000   0.909   0.153    1.00000    1.000
o      0.199   0.691   0.153    1.00000    1.000
_cell_measurement_wavelength    1.541874
_cell_measurement_radiation   'x-rays'
_exptl_crystal_density_diffrn    6.601000
loop_
_pd_peak_d_spacing
_pd_peak_intensity
     4.973995          0.30
     4.410112        130.99
     4.234000         64.40
     3.583102       1000.00
     3.486708        483.26
     3.073000        192.35
     2.890042          1.42
     2.888672         24.20
     2.641056          9.87
     2.583000        150.82
     2.565077          2.90
     2.521275        167.74
     2.486997         81.52
     2.477029        261.58
     2.297454          0.01
     2.292337          3.79
     2.240846          0.92
     2.205056         63.06
     2.117000         19.49
     2.078802          0.19
     2.075516        282.98
     2.001586        132.14
     1.991222          0.00
     1.977283        133.08
     1.928518        246.91
     1.925489          0.13
     1.866391          1.02
     1.857980        180.63
     1.844134         83.14
     1.820087          2.01
     1.791551         44.16
     1.743354         21.38
     1.736790          0.02
     1.687463         21.36
     1.657998          0.05
     1.651831          0.00
     1.637337         18.03
     1.632744          1.37
     1.627242         90.21
     1.619472          0.62
     1.609325         14.33
     1.582155         85.61
     1.578684          0.06
     1.577021          0.07
     1.556837         77.25
     1.543967          1.37
     1.536500         19.01
     1.511815          0.78
     1.502222          0.00
     1.500871         55.61
     1.483256          0.01
     1.479128         23.25
     1.472740          0.38
     1.472191         24.66
     1.470037         41.02
     1.450959         30.17
     1.445021         21.14
     1.444336         14.92
     1.429709          0.39
     1.425656         23.04
     1.415823          0.03
     1.415753          0.26
     1.411333         20.98
     1.395287          0.05
     1.390993          0.05
     1.380135          0.12
     1.375532          0.06
     1.349516          0.01
     1.329219          0.03
     1.326114         67.08
     1.320528         31.54
     1.305700         61.14
     1.305390          0.16
     1.305318          0.04
     1.304759          0.01
     1.302502         54.05
     1.291500         18.39
     1.286267          0.27
     1.282539         28.04
     1.279032         48.32
     1.265544         46.69
     1.260638         11.43
     1.258602          0.05
     1.250049          0.05
     1.244752          0.17
     1.243499          6.28
     1.238514         32.20
     1.235309          5.42
     1.225118          0.00
     1.216451          0.00
     1.214108          0.13
     1.211088         35.95
     1.208968          0.00
     1.207472          4.37
     1.196107          0.06
     1.194367          0.32
     1.190624         19.95
     1.186941          0.00
     1.184822         33.61
     1.184067         31.74
     1.180459         15.65
     1.179027          0.31
     1.177852          4.17
     1.165008          0.01
     1.162236          0.16
     1.156800         28.53
     1.153536          0.00
     1.150797          0.04
     1.148727         35.02
     1.146464          0.00
     1.146168         10.13
     1.137966          0.00
     1.136099          8.74
     1.133894          0.00
     1.126977          0.10
     1.125636          0.01
     1.123829         10.16
     1.120423          8.39
     1.118993          0.01
     1.111323          9.97
     1.106613          0.03
     1.102528          4.07
     1.101081          0.00
     1.100516          0.19
     1.099830          8.40
     1.097024          0.00
     1.085205         26.17
     1.083544          0.00
     1.078521          0.19
     1.074739          0.10
     1.073651         23.88
     1.063004         11.84
     1.062193         32.83
     1.059885          0.08
     1.058500          2.64
     1.057875         20.87
     1.043142         11.46
     1.041667          0.00
     1.041383          0.05
     1.041190          0.09
     1.040234         19.29
     1.039401         14.03
     1.037758          7.00
     1.032941          0.21
     1.031908          0.43
     1.028595          0.39
     1.025594          1.69
     1.024333          9.32
     1.022505          0.08
     1.021115         22.82
     1.018981          0.04
     1.018869          0.00
     1.016920          0.08
     1.012924          0.06
     1.011606         20.20
     1.008125          0.00
##############################################################################
###                            Comments                                    ###
##############################################################################
###   Diffraction pattern calculated by Match!. 
###   I/Ic calculated by Match!. 
###   Space group has been derived from given symmetry operations. 
##############################################################################


