##############################################################################
###               Crystal structure data exported by Match!                ###
##############################################################################
###                           Data published by:                           ###
###                                                                        ###
###               COD (Crystallography Open Database)
##############################################################################
data_4124060
_citation_journal_full    'Journal of the American Chemical Society'
_citation_journal_volume  '126'
_citation_page_first  '9769'
_citation_page_last   '9775'
_citation_year  '2004'
_citation_title  'Chemical evaluation of hypothetical uninodal zeolites'
loop_
_publ_author_name
  'Foster M.D.'
  'Friedrichs O.D.'
  'Bell R.G.'
  'Paz F.A.A.'
  'Klinowski J.'
_chemical_formula_sum  'O2 Si'
_chemical_name_common  'Silica'
_symmetry_space_group_name_H-M 'P 64 2 2'
_space_group_IT_number 181
_space_group_crystal_system 'hexagonal'
loop_
_symmetry_equiv_pos_as_xyz
   'x, y, z'
   'x-y, x, z+0.66667'
   '-y, x-y, z+0.33333'
   '-x, -y, z'
   '-x+y, -x, z+0.66667'
   'y, -x+y, z+0.33333'
   'x-y, -y, -z'
   '-x, -x+y, -z+0.66667'
   'y, x, -z+0.33333'
   '-y, -x, -z+0.33333'
   '-x+y, y, -z'
   'x, x-y, -z+0.66667'
_cell_length_a        6.50293
_cell_length_b        6.50293
_cell_length_c       13.45857
_cell_angle_alpha    90.0000
_cell_angle_beta     90.0000
_cell_angle_gamma   120.0000
_cell_formula_units_Z 12
loop_
_atom_site_label
_atom_site_fract_x
_atom_site_fract_y
_atom_site_fract_z
_atom_site_occupancy
_atom_site_B_iso_or_equiv
o      0.500   0.500   0.980    1.00000    1.000
o      0.622   0.811   0.833    1.00000    1.000
o      0.412   0.588   0.667    1.00000    1.000
si      0.824   0.600   0.617    1.00000    1.000
o      0.845   0.845   0.667    1.00000    1.000
_cell_measurement_wavelength    1.541874
_cell_measurement_radiation   'x-rays'
_exptl_crystal_density_diffrn    2.429000
loop_
_pd_peak_d_spacing
_pd_peak_intensity
     5.631703         19.86
     5.195204       1000.00
     4.486190        863.53
     4.318820        128.94
     3.508945          4.29
     3.251465         31.75
     3.160539        763.25
     2.927627          3.67
     2.888406        206.07
     2.815851         19.50
     2.756172        131.88
     2.632705          2.06
     2.597602          1.40
     2.428574         43.22
     2.384970         25.87
     2.338121         81.74
     2.243095         45.41
     2.159410         22.57
     2.128584         75.02
     2.102451          9.74
     2.083882          0.44
     2.073416          6.52
     2.029473         99.04
     1.945735         14.22
     1.923093         19.69
     1.877234         68.77
     1.859235         20.27
     1.846357          2.30
     1.819539         66.80
     1.808194         17.14
     1.798837          3.86
     1.754473         11.52
     1.731735         24.71
     1.669618         65.06
     1.654966         15.03
     1.639343          4.56
     1.625733         38.77
     1.614000          1.02
     1.611937         26.43
     1.587825          1.31
     1.580269         15.82
     1.561953          5.81
     1.551539         67.11
     1.544032         23.57
     1.539760          3.90
     1.528466          1.93
     1.521504         21.11
     1.495397          7.07
     1.494168         34.14
     1.475103          4.48
     1.463814          0.31
     1.445312          0.88
     1.444203         20.41
     1.439607          2.62
     1.426785          1.06
     1.416738         46.92
     1.407926          0.35
     1.400284         43.25
     1.391607          9.38
     1.378086          9.95
     1.358598         10.92
     1.350973         29.51
     1.343325          0.36
     1.343175          5.76
     1.320710         27.32
     1.319864         46.91
     1.316353          0.01
     1.308997          0.08
     1.298801          8.40
     1.292001         30.25
     1.286089         17.27
     1.281803          2.65
     1.268827         25.70
     1.252843          4.96
     1.247570          0.25
     1.243537         16.92
     1.241539         14.07
     1.241421          0.97
     1.228938          2.07
     1.223847         27.56
     1.223620         52.77
     1.214287          5.77
     1.212316         22.75
     1.208943          4.30
     1.206135          6.98
     1.195616          0.16
     1.192485          0.01
     1.185270          8.98
     1.169648          3.82
     1.169060          2.36
     1.164773         11.84
     1.154348          5.66
     1.145117          0.20
     1.144658         33.80
     1.137548          9.41
     1.135927          0.20
     1.126341         27.48
     1.122417          0.16
     1.122154          0.88
     1.121547          0.31
     1.119565          1.06
     1.117933          6.57
     1.110887          0.10
     1.100602         16.29
     1.099947          0.42
     1.093796          2.86
     1.092436          9.06
     1.083822          1.74
     1.080324          1.05
     1.080168          3.71
     1.079705          4.99
     1.077780          9.55
     1.072369         11.19
     1.070032          0.03
     1.068083          0.12
     1.064292          0.36
     1.060980         16.03
     1.060758          6.84
     1.060245          1.90
     1.053513          0.39
     1.051225          1.10
     1.041941          2.73
     1.039041          0.00
     1.036708          0.14
     1.035549          6.12
     1.035481          1.56
     1.031621          1.34
     1.025083          0.36
     1.025016          1.49
     1.024687          9.91
     1.019577          3.10
     1.018213          0.13
     1.014737          9.19
     1.011484          0.01
     1.008639          2.23
     1.006568          0.41
##############################################################################
###                            Comments                                    ###
##############################################################################
###   Diffraction pattern calculated by Match!. 
###   I/Ic calculated by Match!. 
###   Space group has been derived from given symmetry operations. 
##############################################################################


