##############################################################################
###               Crystal structure data exported by Match!                ###
##############################################################################
###                           Data published by:                           ###
###                                                                        ###
###               COD (Crystallography Open Database)
##############################################################################
data_1529153
_citation_journal_full    'Solid State Ionics'
_citation_journal_volume  '167'
_citation_page_first  '221'
_citation_page_last   '227'
_citation_year  '2004'
_citation_title  'A theoretical study of olivine Li M P O4 cathodes'
loop_
_publ_author_name
  'Osorio-Guillen J.M.'
  'Ahuja R.'
  'Holm B.'
  'Johansson B.'
_chemical_formula_sum  'Co O4 P'
_chemical_name_common  'Co (P O4)'
_symmetry_space_group_name_H-M 'P n m a'
_space_group_IT_number 62
_space_group_crystal_system 'orthorhombic'
loop_
_symmetry_equiv_pos_as_xyz
   'x, y, z'
   '-x+0.5, -y, z+0.5'
   'x+0.5, -y+0.5, -z+0.5'
   '-x, y+0.5, -z'
   '-x, -y, -z'
   'x+0.5, y, -z+0.5'
   '-x+0.5, y+0.5, z+0.5'
   'x, -y+0.5, z'
_cell_length_a       10.05470
_cell_length_b        5.83310
_cell_length_c        4.70290
_cell_angle_alpha    90.0000
_cell_angle_beta     90.0000
_cell_angle_gamma    90.0000
_cell_formula_units_Z 4
loop_
_atom_site_label
_atom_site_fract_x
_atom_site_fract_y
_atom_site_fract_z
_atom_site_occupancy
_atom_site_B_iso_or_equiv
co      0.275   0.250   0.970    1.00000    1.000
o      0.118   0.250   0.735    1.00000    1.000
p      0.095   0.250   0.410    1.00000    1.000
o      0.447   0.250   0.162    1.00000    1.000
o      0.170   0.044   0.262    1.00000    1.000
_cell_measurement_wavelength    1.541874
_cell_measurement_radiation   'x-rays'
_exptl_crystal_density_diffrn    3.705000
loop_
_pd_peak_d_spacing
_pd_peak_intensity
     5.027350        769.12
     4.259949        778.52
     3.808147        197.05
     3.661171         42.79
     3.440204       1000.00
     3.434429        115.48
     2.959544        149.47
     2.916550        705.21
     2.729380        125.17
     2.522757         31.35
     2.513675          0.07
     2.472136        958.02
     2.406563        250.92
     2.351450          8.96
     2.308453         96.46
     2.289669         87.01
     2.223101        104.38
     2.216879        104.19
     2.131350        103.01
     2.129974         90.20
     2.072266          3.91
     2.000759         50.67
     1.992849         68.38
     1.924937          2.45
     1.904074         29.46
     1.848998         10.53
     1.830585        178.83
     1.827974          9.69
     1.813461          0.58
     1.800980         48.31
     1.796852         11.38
     1.768829        136.13
     1.764907          7.91
     1.762567        128.33
     1.720102        246.95
     1.717215         97.47
     1.692024         64.10
     1.675783         23.00
     1.647314        123.65
     1.610634        155.86
     1.606567          1.50
     1.583619        202.95
     1.578562          1.27
     1.561621          7.98
     1.548921          3.20
     1.537961         69.06
     1.528292          0.59
     1.523751          0.09
     1.513915          0.28
     1.497040         83.80
     1.496564         11.67
     1.482081         21.15
     1.479772         41.94
     1.478392         48.57
     1.461782          0.28
     1.458275        114.45
     1.453012        119.20
     1.449613         60.91
     1.436018          0.05
     1.419983          5.72
     1.400544         19.80
     1.388263          0.10
     1.379690         54.22
     1.379676         32.06
     1.373740         51.89
     1.367973          1.16
     1.367954          4.57
     1.364690         42.73
     1.353700          3.14
     1.342286          1.60
     1.339886         37.23
     1.337158          0.02
     1.331502         85.53
     1.330162          5.85
     1.328808         22.75
     1.296870         54.60
     1.287108         13.72
     1.286203         15.39
     1.276705         15.91
     1.269382         59.03
     1.261379          1.09
     1.256837          0.10
     1.242781         70.66
     1.239303         11.62
     1.236351         11.48
     1.236068          4.80
     1.229995         15.55
     1.228641          3.12
     1.225784          8.91
     1.225525          9.93
     1.220390          5.53
     1.218318          3.96
     1.214225          0.51
     1.211499         28.33
     1.210237          2.87
     1.209481          5.69
     1.203282         28.23
     1.201551         23.97
     1.199583          0.09
     1.188743          8.45
     1.185948         14.07
     1.175725          7.28
     1.167768         16.14
     1.162383          0.08
     1.154227          5.86
     1.146735         23.97
     1.145048          0.53
     1.145015          2.12
     1.144834         21.99
     1.144810          0.02
     1.138299         21.41
     1.136423          6.06
     1.132302          3.61
     1.130035         17.89
     1.125189         17.47
     1.123402          1.31
     1.123379          3.63
     1.121962          0.12
     1.120960         17.97
     1.117016         10.21
     1.111550         22.46
     1.109441          0.00
     1.108439          3.07
     1.104630          1.17
     1.100074         16.47
     1.097843         39.14
     1.090455          0.29
     1.089903          0.47
     1.088953         14.26
     1.086941         19.47
     1.084099         35.86
     1.072736         44.64
     1.071159          0.21
     1.068548          7.49
     1.065675         14.88
     1.065655          0.07
     1.064987          3.13
     1.061756          0.74
     1.059043          5.81
     1.058206          2.96
     1.055521          0.02
     1.055041          0.70
     1.047669          1.71
     1.044430         12.77
     1.043298          4.99
     1.042009          9.51
     1.039471          6.78
     1.036951          0.01
     1.036925          0.13
     1.036133          0.00
     1.032394          2.25
     1.029899          0.87
     1.023196          6.83
     1.018509         35.14
     1.017348          3.99
     1.014978          6.91
     1.009090          1.78
##############################################################################
###                            Comments                                    ###
##############################################################################
###   Diffraction pattern calculated by Match!. 
###   I/Ic calculated by Match!. 
##############################################################################


