##############################################################################
###               Crystal structure data exported by Match!                ###
##############################################################################
###                           Data published by:                           ###
###                                                                        ###
###               COD (Crystallography Open Database)
##############################################################################
data_9009904
_citation_journal_full    'Acta Chemica Scandinavica'
_citation_journal_volume  '22'
_citation_page_first  '2529'
_citation_page_last   '2540'
_citation_year  '1968'
_citation_title  'The crystal structure of terlinguaite Hg4O2Cl2 Locality: Terlingua, Texas, USA'
loop_
_publ_author_name
  'Aurivillius K.'
  'Folkmarson L.'
_chemical_formula_sum  'Cl Hg2 O'
_chemical_name_mineral  'Terlinguaite'
_symmetry_space_group_name_H-M 'C 1 2/c 1'
_space_group_IT_number 15
_space_group_crystal_system 'monoclinic'
loop_
_symmetry_equiv_pos_as_xyz
   'x, y, z'
   'x+0.5, y+0.5, z'
   '-x, y, -z+0.5'
   '-x+0.5, y+0.5, -z+0.5'
   '-x, -y, -z'
   '-x+0.5, -y+0.5, -z'
   'x, -y, z+0.5'
   'x+0.5, -y+0.5, z+0.5'
_cell_length_a       19.51500
_cell_length_b        5.91500
_cell_length_c        9.47800
_cell_angle_alpha    90.0000
_cell_angle_beta    143.8100
_cell_angle_gamma    90.0000
loop_
_atom_site_label
_atom_site_fract_x
_atom_site_fract_y
_atom_site_fract_z
_atom_site_occupancy
_atom_site_B_iso_or_equiv
hg      0.250   0.250   0.000    1.00000    1.000
hg      0.000   0.591   0.250    1.00000    1.000
hg      0.049   0.195   0.202    1.00000    1.000
o      0.079   0.179   0.722    1.00000    0.570
cl      0.195   0.295   0.244    1.00000    1.298
_cell_measurement_wavelength    1.541874
_cell_measurement_radiation   'x-rays'
_exptl_crystal_density_diffrn    9.307000
loop_
_pd_peak_d_spacing
_pd_peak_intensity
     5.761461        647.27
     5.262193         12.63
     4.821781          0.17
     4.565564         59.36
     4.335459        205.92
     4.162378        867.36
     3.678631        123.92
     3.277862        887.95
     3.256820        313.87
     3.221379         17.57
     3.186565         14.51
     2.964778         20.50
     2.957500        404.74
     2.880730        413.54
     2.843895        276.46
     2.813598        349.86
     2.798213        252.42
     2.786716         25.85
     2.631096         10.00
     2.614829        293.68
     2.512206        397.78
     2.505156       1000.00
     2.482207        254.65
     2.449706         72.06
     2.410890         56.29
     2.391066        147.08
     2.348809        131.96
     2.282782          0.01
     2.217391          6.05
     2.194597        114.45
     2.186141        145.79
     2.167730         17.12
     2.162256          1.29
     2.147355         46.13
     2.123225          3.31
     2.121091          2.63
     2.101462        219.49
     2.098330        122.77
     2.081189          4.10
     2.063591         53.40
     2.032615          1.88
     2.006515         48.70
     2.006460         65.15
     1.999340         52.38
     1.982875         45.61
     1.968899        283.63
     1.950736          2.46
     1.943422         86.44
     1.934541          2.12
     1.920487          4.96
     1.918589         24.87
     1.884351         39.39
     1.883586        149.88
     1.879886          0.82
     1.839315        256.09
     1.818025          0.19
     1.807087         26.44
     1.805225         38.82
     1.794671        148.93
     1.779499         60.41
     1.768388         47.50
     1.763016        238.94
     1.759720         54.45
     1.757996        265.36
     1.754064         31.48
     1.713123          7.51
     1.708911         20.39
     1.702014          7.95
     1.691743         18.06
     1.684785          0.05
     1.672660         45.25
     1.663364         14.78
     1.650968         58.02
     1.638931         80.21
     1.635293         41.78
     1.634608          0.16
     1.628410         57.02
     1.621684          4.26
     1.610690         60.17
     1.607260          3.33
     1.605410         24.09
     1.602671        165.68
     1.594467          0.60
     1.593282         48.91
     1.585864         26.31
     1.583992          0.00
     1.579654         69.31
     1.578695         88.74
     1.577821         36.10
     1.574138         49.47
     1.573455          0.51
     1.553859          4.25
     1.528504          0.09
     1.525012          8.24
     1.521855         13.60
     1.521384          5.91
     1.520108          1.49
     1.513962         44.39
     1.513729         12.06
     1.512182          3.66
     1.503220         34.69
     1.498591        166.02
     1.498186          2.48
     1.495960          9.27
     1.493273         19.27
     1.482389         57.49
     1.481240         60.86
     1.478750          4.37
     1.459732          4.75
     1.454577          3.30
     1.447856         70.86
     1.447835         20.43
     1.445153         16.46
     1.440365          0.03
     1.438899         15.03
     1.432325         26.63
     1.429683          6.41
     1.421947          2.26
     1.420983         28.30
     1.420223         18.13
     1.416402          0.21
     1.406799         32.86
     1.402684          7.27
     1.400803          5.07
     1.399359          1.75
     1.399106         53.04
     1.393427          1.38
     1.393358         15.90
     1.390864         18.07
     1.387920         13.44
     1.387459          0.42
     1.382714         84.30
     1.370457          0.59
     1.366517          9.68
     1.361922          1.61
     1.355426         49.19
     1.355256         33.09
     1.353208          1.73
     1.350328          9.40
     1.341356          0.21
     1.332995          0.20
     1.330609         29.85
     1.330083         60.88
     1.327368          8.31
     1.325202         13.83
     1.316416          0.27
     1.315548          2.16
     1.315264          0.94
     1.310817         40.64
     1.307414         13.81
     1.307311          5.19
     1.307088          9.40
     1.303952         35.71
     1.301794         42.95
     1.296536          2.45
     1.294954          6.65
     1.288205         52.26
     1.287870         24.94
     1.285904         36.68
     1.281427         32.60
     1.280173         26.92
     1.278788          2.82
     1.277686          1.85
     1.274753         21.04
     1.272076          4.88
     1.270153          0.60
     1.265305          1.58
     1.264725         15.40
     1.263951         44.12
     1.263680          4.79
     1.263623          8.66
     1.262675          5.80
     1.259987          0.85
     1.256103          3.80
     1.253356         31.22
     1.252578         32.72
     1.251398         27.73
     1.251346         16.29
     1.246024         50.15
     1.243133          1.20
     1.241214          1.95
     1.241104          0.03
     1.231410          1.67
     1.230163         30.81
     1.226210          0.66
     1.225388          3.32
     1.224853         30.33
     1.222421         13.43
     1.218122          6.69
     1.217557         11.35
     1.216708          0.03
     1.212813         10.59
     1.205445          0.11
     1.201802          0.95
     1.198249          7.06
     1.195907         22.91
     1.195533          0.51
     1.194129          1.71
     1.193511         29.70
     1.187472         24.23
     1.186898          1.05
     1.182401          2.08
     1.181639          9.43
     1.178433         17.10
     1.176814         46.95
     1.174901          7.70
     1.174405         42.60
     1.173764         25.58
     1.172734         15.78
     1.171664         16.15
     1.171233         12.80
     1.168662          0.58
     1.165919         37.16
     1.165375         19.65
     1.163131          1.79
     1.163006          5.36
     1.161517          6.94
     1.161168          0.05
     1.158828          0.05
     1.158115          9.51
     1.157095         31.77
     1.156414          6.64
     1.152292          7.88
     1.149235          9.74
     1.147727          3.82
     1.147183          8.43
     1.144864          1.19
     1.141391         23.75
     1.138863         27.56
     1.135377         37.34
     1.133502          3.24
     1.132977          1.13
     1.132101          1.22
     1.131808          0.25
     1.130590         29.79
     1.129723         43.85
     1.125880          0.01
     1.124338          8.34
     1.122147          8.49
     1.121370         10.62
     1.119399         17.12
     1.118222         22.90
     1.116989          0.64
     1.115613         16.55
     1.114068          2.90
     1.111380          7.10
     1.108695          6.52
     1.107878          4.44
     1.106484         38.02
     1.102603         21.21
     1.101941          1.83
     1.099920         10.83
     1.098632          0.81
     1.097299          0.01
     1.095392          0.68
     1.093071         38.86
     1.092679          0.10
     1.092621         36.58
     1.092287         21.52
     1.092241          0.34
     1.091498         17.70
     1.090298         18.29
     1.088474         21.20
     1.088234          7.25
     1.088199          2.31
     1.087659          4.77
     1.085607          7.59
     1.083865          0.45
     1.081557         21.98
     1.081128          0.26
     1.079545          1.17
     1.077779          2.45
     1.073793         14.09
     1.073677         32.24
     1.070425         44.27
     1.068788         28.71
     1.068590          3.72
     1.068583          2.98
     1.068558          0.03
     1.066495          0.06
     1.066462          0.73
     1.066200          0.35
     1.066080          1.08
     1.064842          8.15
     1.063504          0.04
##############################################################################
###                            Comments                                    ###
##############################################################################
###   Diffraction pattern calculated by Match!. 
###   I/Ic calculated by Match!. 
##############################################################################


