##############################################################################
###               Crystal structure data exported by Match!                ###
##############################################################################
###                           Data published by:                           ###
###                                                                        ###
###               COD (Crystallography Open Database)
##############################################################################
data_9003080
_citation_journal_full    'American Mineralogist'
_citation_journal_volume  '88'
_citation_page_first  '1423'
_citation_page_last   '1427'
_citation_year  '2003'
_citation_title  'Variation of hydrogen bonded O...O distances in goethite at high pressureSample at P = 9.0 GPa'
loop_
_publ_author_name
  'Nagai T.'
  'Kagi H.'
  'Yamanaka T.'
_chemical_formula_sum  'Fe H O2'
_chemical_name_mineral  'Goethite'
_symmetry_space_group_name_H-M 'P b n m'
_space_group_IT_number 62
_space_group_crystal_system 'orthorhombic'
loop_
_symmetry_equiv_pos_as_xyz
   'x, y, z'
   '-x, -y, z+0.5'
   'x+0.5, -y+0.5, -z'
   '-x+0.5, y+0.5, -z+0.5'
   '-x, -y, -z'
   'x, y, -z+0.5'
   '-x+0.5, y+0.5, z'
   'x+0.5, -y+0.5, z+0.5'
_cell_length_a        4.46830
_cell_length_b        9.83340
_cell_length_c        2.97390
_cell_angle_alpha    90.0000
_cell_angle_beta     90.0000
_cell_angle_gamma    90.0000
loop_
_atom_site_label
_atom_site_fract_x
_atom_site_fract_y
_atom_site_fract_z
_atom_site_occupancy
_atom_site_B_iso_or_equiv
fe      -0.046   0.144   0.250    1.00000    1.000
o      0.306   -0.196   0.250    1.00000    1.000
o      -0.207   -0.052   0.250    1.00000    1.000
_cell_measurement_wavelength    1.541874
_cell_measurement_radiation   'x-rays'
_cell_measurement_pressure       9000000.000000
_exptl_crystal_density_diffrn    4.465000
loop_
_pd_peak_d_spacing
_pd_peak_intensity
     4.916700        112.60
     4.068013       1000.00
     3.306752        109.36
     2.642939        424.54
     2.544630        260.33
     2.475704         51.94
     2.458350        170.01
     2.400785        756.50
     2.234150         35.38
     2.211206         97.26
     2.178627         19.55
     2.153886        155.06
     2.034006         16.38
     1.975531         47.46
     1.894778         54.20
     1.846103          9.03
     1.800038         13.78
     1.757485         98.06
     1.744419         20.74
     1.678882        354.71
     1.653376        103.94
     1.638900         33.57
     1.568468         75.12
     1.539922        230.77
     1.538666          5.52
     1.486950        103.60
     1.476207         37.80
     1.472636          8.84
     1.445061         23.94
     1.435366        112.22
     1.425462         46.78
     1.423285          4.54
     1.396578         57.21
     1.366588          0.02
     1.356149          9.89
     1.356004         47.21
     1.340105         58.43
     1.331745         30.83
     1.322265          0.19
     1.321469         18.14
     1.319697         16.98
     1.295927         65.02
     1.285426         15.56
     1.273869          0.55
     1.272315         30.12
     1.237852         10.55
     1.233799         21.30
     1.229175          0.68
     1.228159          5.80
     1.223675         23.69
     1.221786          0.47
     1.207614          7.56
     1.200393          3.80
     1.189223          0.78
     1.187354          0.24
     1.185151          0.08
     1.170965         33.02
     1.158026          2.77
     1.146394          3.82
     1.135968         20.42
     1.117075          4.29
     1.109936         26.93
     1.105603         38.02
     1.104209          7.98
     1.102712         12.23
     1.102251          7.63
     1.101243         12.87
     1.100947          1.47
     1.089314          0.06
     1.076943         15.09
     1.069248          2.45
     1.061331          3.07
     1.057358          4.16
     1.047614         18.23
     1.046335          4.77
     1.039871          4.79
     1.033543         16.47
     1.029005         25.56
     1.022855          4.43
     1.021943          8.45
     1.017003          2.34
     1.012592         21.89
##############################################################################
###                            Comments                                    ###
##############################################################################
###   Diffraction pattern calculated by Match!. 
###   I/Ic calculated by Match!. 
###   Space group has been derived from given symmetry operations. 
##############################################################################


