##############################################################################
###               Crystal structure data exported by Match!                ###
##############################################################################
###                           Data published by:                           ###
###                                                                        ###
###               COD (Crystallography Open Database)
##############################################################################
data_4115456
_citation_journal_full    'Journal of the American Chemical Society'
_citation_journal_volume  '123'
_citation_page_first  '2204'
_citation_page_last   '2212'
_citation_year  '2001'
_citation_title  'Ti Location in the MFI Framework of Ti-Silicalite-1: A Neutron PowderDiffraction Study'
loop_
_publ_author_name
  'Carlo Lamberti'
  'Silvia Bordiga'
  'Adriano Zecchina'
  'Gilberto Artioli'
  'Gianluigi Marra'
  'Guido Span?'
_chemical_formula_sum  'O2 Si'
_chemical_name_common  'Silica'
_symmetry_space_group_name_H-M 'P n m a'
_space_group_IT_number 62
_space_group_crystal_system 'orthorhombic'
loop_
_symmetry_equiv_pos_as_xyz
   'x, y, z'
   '-x+0.5, -y, z+0.5'
   'x+0.5, -y+0.5, -z+0.5'
   '-x, y+0.5, -z'
   '-x, -y, -z'
   'x+0.5, y, -z+0.5'
   '-x+0.5, y+0.5, z+0.5'
   'x, -y+0.5, z'
_cell_length_a       20.11351
_cell_length_b       19.92999
_cell_length_c       13.40977
_cell_angle_alpha    90.0000
_cell_angle_beta     90.0000
_cell_angle_gamma    90.0000
_cell_formula_units_Z 96
loop_
_atom_site_label
_atom_site_fract_x
_atom_site_fract_y
_atom_site_fract_z
_atom_site_occupancy
_atom_site_B_iso_or_equiv
si      0.425   0.057   -0.331    1.00000    1.639
si      0.308   0.030   -0.186    1.00000    1.639
si      0.278   0.061   0.034    1.00000    1.639
si      0.119   0.062   0.030    1.00000    1.639
si      0.073   0.029   -0.187    1.00000    1.639
si      0.189   0.062   -0.326    1.00000    1.639
si      0.422   -0.175   -0.322    1.00000    1.639
si      0.307   -0.129   -0.185    1.00000    1.639
si      0.273   -0.175   0.032    1.00000    1.639
si      0.121   -0.172   0.035    1.00000    1.639
si      0.070   -0.129   -0.177    1.00000    1.639
si      0.185   -0.173   -0.322    1.00000    1.639
o      0.378   0.048   -0.236    1.00000    3.279
o      0.308   0.061   -0.077    1.00000    3.279
o      0.199   0.065   0.028    1.00000    3.279
o      0.100   0.060   -0.086    1.00000    3.279
o      0.117   0.056   -0.277    1.00000    3.279
o      0.247   0.062   -0.244    1.00000    3.279
o      0.375   -0.157   -0.230    1.00000    3.279
o      0.305   -0.154   -0.072    1.00000    3.279
o      0.197   -0.151   0.032    1.00000    3.279
o      0.086   -0.162   -0.070    1.00000    3.279
o      0.118   -0.151   -0.265    1.00000    3.279
o      0.247   -0.152   -0.256    1.00000    3.279
o      0.317   -0.050   -0.189    1.00000    3.279
o      0.081   -0.050   -0.168    1.00000    3.279
o      0.415   0.130   -0.378    1.00000    3.279
o      0.411   0.002   -0.416    1.00000    3.279
o      0.398   -0.130   -0.414    1.00000    3.279
o      0.191   0.131   -0.384    1.00000    3.279
o      0.195   0.001   -0.404    1.00000    3.279
o      0.199   -0.132   -0.422    1.00000    3.279
o      -0.003   0.045   -0.213    1.00000    3.279
o      -0.002   -0.158   -0.202    1.00000    3.279
o      0.425   -0.250   -0.365    1.00000    3.279
o      0.199   -0.250   -0.346    1.00000    3.279
o      0.288   -0.250   0.069    1.00000    3.279
o      0.115   -0.250   0.060    1.00000    3.279
si      0.425   0.057   -0.331    1.00000    1.639
si      0.308   0.030   -0.186    1.00000    1.639
si      0.278   0.061   0.034    1.00000    1.639
si      0.119   0.062   0.030    1.00000    1.639
si      0.073   0.029   -0.187    1.00000    1.639
si      0.189   0.062   -0.326    1.00000    1.639
si      0.422   -0.175   -0.322    1.00000    1.639
si      0.307   -0.129   -0.185    1.00000    1.639
si      0.273   -0.175   0.032    1.00000    1.639
si      0.121   -0.172   0.035    1.00000    1.639
si      0.070   -0.129   -0.177    1.00000    1.639
si      0.185   -0.173   -0.322    1.00000    1.639
_cell_measurement_wavelength    1.541874
_cell_measurement_radiation   'x-rays'
_exptl_crystal_density_diffrn    2.614000
loop_
_pd_peak_d_spacing
_pd_peak_intensity
    11.157408       1000.00
    11.125782        671.49
    10.056755        479.50
     9.964995        505.43
     9.735611        230.31
     8.978439         15.39
     8.045569          8.05
     7.460589          0.09
     7.432264         15.80
     7.078535          3.62
     6.704885         65.77
     6.360776        159.24
     6.259925          0.86
     6.059640         11.78
     5.996758        134.27
     5.952865         84.99
     5.742442          0.28
     5.708113         91.47
     5.578704         73.54
     5.562891         51.17
     5.543098         11.75
     5.372210         10.62
     5.361605         36.59
     5.138133         13.15
     5.122694          0.66
     5.028378         35.83
     4.982498         55.72
     4.875590          6.23
     4.867805          0.07
     4.740935          0.06
     4.708250          0.71
     4.612235         45.27
     4.594391          0.92
     4.582123          2.10
     4.549478          4.28
     4.489220          2.37
     4.464599          7.35
     4.451433         11.04
     4.363470         20.06
     4.361571         28.84
     4.281120          3.09
     4.272177         14.04
     4.262505         12.82
     4.257006         68.69
     4.235995          0.02
     4.084629         10.76
     4.022784          0.09
     4.009372         34.08
     4.001455          4.63
     3.999177          0.00
     3.997067          4.90
     3.943259          1.06
     3.922395          1.00
     3.859039         18.47
     3.853068        490.76
     3.841349          0.99
     3.832309          0.41
     3.820778        392.28
     3.783018          1.18
     3.779447          0.00
     3.753653        169.39
     3.730294          0.00
     3.719136        257.12
     3.716132          0.64
     3.708594         24.05
     3.705551         16.17
     3.656023          0.34
     3.647116        208.22
     3.593776         18.59
     3.571693          0.06
     3.539267          0.24
     3.484370         22.28
     3.479544          5.71
     3.449491          0.11
     3.441074         73.01
     3.434571          0.02
     3.422082          0.00
     3.398955         15.77
     3.377608         11.96
     3.352443          4.92
     3.352252         30.94
     3.340778         19.78
     3.333038          1.12
     3.321665         27.40
     3.319573          1.95
     3.306824         56.98
     3.305814          3.83
     3.294810          0.29
     3.282610          0.00
     3.262224          7.28
     3.259714          0.32
     3.252173          5.10
     3.245204          7.06
     3.243207         16.24
     3.209720          0.47
     3.183578          2.56
     3.180388         12.25
     3.177450          0.07
     3.177287          0.91
     3.167513          7.85
     3.158829          0.41
     3.154074          0.04
     3.140651          0.26
     3.138528         21.04
     3.129963          0.04
     3.123633          5.04
     3.091689          1.78
     3.070290          0.36
     3.061396          3.71
     3.050953         87.33
     3.048000          5.00
     3.042189          3.30
     3.029820          0.08
     2.998482          0.78
     2.998379          1.38
     2.992813         11.22
     2.990127         70.54
     2.984640          0.02
     2.980394          5.01
     2.976433          3.08
     2.974960         63.37
     2.965111          9.60
     2.965012          4.10
     2.960354          4.31
     2.957032          0.02
     2.944368          0.22
     2.942943         61.84
     2.920951          0.37
     2.905685          1.91
     2.871311          1.92
     2.871221          0.48
     2.868608          4.78
     2.863973         16.46
     2.854057          0.99
     2.852758          5.65
     2.836126          0.92
     2.831443          5.58
     2.809584          8.05
     2.789352          0.52
     2.785059         12.54
     2.782075          2.06
     2.781446          0.55
     2.781337          0.21
     2.774773          1.02
     2.771549          0.51
     2.770333          0.51
     2.762428          0.01
     2.758738          0.01
     2.755226          0.07
     2.739473          0.48
     2.732995          3.39
     2.732918         35.39
     2.726665          2.19
     2.723374          0.08
     2.720402          0.03
     2.719278          0.01
     2.714184          0.44
     2.704158          0.23
     2.686105          0.04
     2.684038          0.01
     2.681856         16.28
     2.680803          1.61
     2.658425          6.76
     2.657995          8.39
     2.657900          0.13
     2.642999          0.89
     2.641057          2.78
     2.635086          0.61
     2.618168          3.65
     2.608374         49.92
     2.598690          1.82
     2.591388          6.35
     2.589710          0.01
     2.587682         15.61
     2.577094          0.03
     2.575358          0.89
     2.571978          0.44
     2.571850         12.92
     2.569756          0.46
     2.569131          0.23
     2.569067          0.01
     2.568593          1.04
     2.565563         14.55
     2.563870          0.57
     2.561347          0.28
     2.560409          0.00
     2.554122         15.82
     2.552916          0.63
     2.545027         17.93
     2.535966          1.14
     2.519859          2.76
     2.515845          5.36
     2.514189         26.27
     2.507974          0.18
     2.494419          0.78
     2.493433          1.22
     2.491249         23.31
     2.490112         23.66
     2.486941         19.24
     2.486863          1.37
     2.486023          4.60
     2.477556         17.96
     2.477421          4.75
     2.471131          0.03
     2.470901          0.17
     2.468146          1.31
     2.454227          4.48
     2.452352         10.29
     2.447309          0.10
     2.440817          1.39
     2.437795          7.71
     2.436323          0.04
     2.433903          0.08
     2.431378          3.27
     2.418159          4.38
     2.417048         32.36
     2.415829          3.73
     2.414218          5.15
     2.401380          0.08
     2.401240         16.63
     2.399466          1.91
     2.398484          1.14
     2.396191         30.69
     2.396138         21.15
     2.392686          0.34
     2.391921          0.29
     2.384446         31.91
     2.379775          0.36
     2.370467          0.16
     2.366400          0.25
     2.361500          0.16
     2.359578          0.33
     2.359512          0.51
     2.355500          0.48
     2.354125         31.07
     2.353876          1.16
     2.351428          2.78
     2.349894          0.04
     2.348938          1.13
     2.345455          0.01
     2.343507          2.25
     2.337872          0.01
     2.335715          0.27
     2.335262          3.33
     2.333502          0.14
     2.331696          1.02
     2.323972         23.17
     2.323813          0.07
     2.319679         17.82
     2.316090          3.60
     2.306117          0.08
     2.302372          2.29
     2.300621          0.27
     2.299030          0.31
     2.297195          0.01
     2.296442          7.39
     2.291062          2.02
     2.289824          0.00
     2.287815          0.01
     2.285354          1.26
     2.274739          6.12
     2.271384          0.02
     2.260741          1.33
     2.244610          0.12
     2.234962         21.52
     2.232597          3.55
     2.232299          0.56
     2.231482         17.90
     2.229198          0.22
     2.227427          0.21
     2.225758          0.01
     2.225716          0.19
     2.225156         20.63
     2.225101          1.91
     2.222335          1.77
     2.221291          5.48
     2.218928          0.25
     2.217624          0.01
     2.213811          0.35
     2.211663          4.27
     2.207621          0.06
     2.205314          0.91
     2.204431          0.00
     2.201997         36.21
     2.201632          6.54
     2.195799          4.00
     2.191335          0.29
     2.191068          0.05
     2.184853          0.02
     2.181735          0.02
     2.181669          2.63
     2.180786          2.44
     2.178208          0.85
     2.177552          2.96
     2.174672          0.33
     2.172611          2.69
     2.172076          0.87
     2.170075          0.00
     2.168779          0.06
     2.168714          0.00
     2.168079          2.13
     2.166953          0.05
     2.163471          0.77
     2.163138         39.06
     2.162636          0.71
     2.157604          0.31
     2.152394          0.01
     2.145134          0.01
     2.142206          0.80
     2.140560          0.05
     2.140199          0.27
     2.137564          0.10
     2.136088          0.00
     2.135049          0.69
     2.131252          0.00
     2.131191          1.75
     2.128503          0.00
     2.126875          0.15
     2.126509          1.85
     2.121300          0.03
     2.120259          0.67
     2.120162          0.26
     2.117997          0.17
     2.115336          0.00
     2.111882          0.82
     2.108361          4.25
     2.108266          0.06
     2.106649          0.87
     2.100265         24.74
     2.094208          6.61
     2.092251          4.52
     2.092052          9.92
     2.091331          0.16
     2.086642          0.50
     2.082741          0.44
     2.081045          3.85
     2.077333          0.16
     2.075548          0.74
     2.073836          0.11
     2.073745          2.07
     2.072817          0.01
     2.072760          1.93
     2.069802          2.67
     2.067251          0.36
     2.066757          4.49
     2.064663          3.43
     2.064629          3.17
     2.061929          1.42
     2.058220          0.00
     2.049439          0.08
     2.043169          0.17
     2.042315          0.08
     2.039205          0.22
     2.037409          5.29
     2.036561          0.00
     2.035285          0.03
     2.034825          0.04
     2.031675          0.00
     2.028805          0.66
     2.027004          0.22
     2.026622          0.07
     2.019880          0.32
     2.019796          0.03
     2.019618          1.69
     2.015935          0.05
     2.011392         27.73
     2.011351         23.39
     2.006366          0.11
     2.005905          0.01
     2.004686          0.90
     2.003867          0.15
     2.001226          0.08
     2.001186          0.17
     2.000728          0.08
     1.999822          3.64
     1.999588         10.04
     1.999548          1.35
     1.998919          0.47
     1.998534          0.06
     1.998483          0.04
     1.997318          0.93
     1.997105          8.00
     1.992999         32.49
     1.992487          0.29
     1.992417          1.44
     1.989780          9.79
     1.989101          0.08
     1.988941          0.31
     1.984288          0.01
     1.982654          0.39
     1.979267          1.15
     1.977683          1.23
     1.974702          0.05
     1.971629          0.89
     1.971591          2.70
     1.961945          2.99
     1.961197          3.44
     1.960605          0.03
     1.959878          0.38
     1.954979          1.75
     1.954392          0.78
     1.953682          0.08
     1.952215          0.03
     1.952177          0.04
     1.952149         16.32
     1.951186          0.10
     1.950959          0.00
     1.950884          0.01
     1.950620          0.09
     1.947122          0.28
     1.946756          0.25
     1.944362          0.21
     1.943084          5.21
     1.940341          0.11
     1.939941          0.05
     1.936270          0.03
     1.934529          0.08
     1.930606          0.02
     1.929519          0.12
     1.929073          0.05
     1.927324          0.14
     1.926534          0.02
     1.925091          0.00
     1.925055          0.37
     1.923724          0.08
     1.920675          1.07
     1.920279          3.97
     1.919945          0.02
     1.917596          0.01
     1.917183          0.14
     1.916440          0.27
     1.916181          7.90
     1.916154          1.62
     1.914147         10.65
     1.913995          2.23
     1.913809          0.39
     1.913764          0.00
     1.910389          1.38
     1.909929          1.10
     1.907051          0.12
     1.906893          1.06
     1.905520          0.95
     1.902704          0.18
     1.901830          0.70
     1.898380          0.01
     1.891509          0.06
     1.891284          0.81
     1.889723          0.01
     1.884575          0.70
     1.881844          1.58
     1.880424          2.40
     1.876826          0.93
     1.874371          1.68
     1.874313          5.88
     1.873511          0.49
     1.873060          0.03
     1.871909         16.67
     1.871842          0.11
     1.866236          2.37
     1.865147          1.22
     1.865114          0.45
     1.864010          5.05
     1.863500          0.01
     1.859568          0.35
     1.859527          0.05
     1.858066          0.01
     1.855189          0.01
     1.854297          0.25
     1.853909          0.96
     1.852776          0.65
     1.852308          0.72
     1.851526          0.00
     1.851486          0.00
     1.850302          0.03
     1.849160          0.00
     1.847699          0.01
     1.847332          0.10
     1.846467          0.01
     1.845771          0.02
     1.842609          0.93
     1.841966          2.26
     1.840681          1.61
     1.839983          0.22
     1.837259          0.00
     1.836748          0.00
     1.835340          0.02
     1.834243          2.67
     1.834212          0.10
     1.834149          0.00
     1.833021          1.22
     1.830405          0.00
     1.829153          0.00
     1.828012          0.12
     1.827973          6.42
     1.826524          0.45
     1.826493          0.02
     1.825247          0.02
     1.824437          0.03
     1.823558          0.00
     1.823520          0.01
##############################################################################
###                            Comments                                    ###
##############################################################################
###   Diffraction pattern calculated by Match!. 
###   I/Ic calculated by Match!. 
###   Space group has been derived from given symmetry operations. 
##############################################################################


