##############################################################################
###               Crystal structure data exported by Match!                ###
##############################################################################
###                           Data published by:                           ###
###                                                                        ###
###               COD (Crystallography Open Database)
##############################################################################
data_9002990
_citation_journal_full    'American Mineralogist'
_citation_journal_volume  '88'
_citation_page_first  '782'
_citation_page_last   '788'
_citation_year  '2003'
_citation_title  'Neutron and temperature-resolved synchrotron X-ray powder diffractionstudy of akaganeite'
loop_
_publ_author_name
  'Post J. E.'
  'Heaney P. J.'
  'Von Dreele R. B.'
  'Hanson J. C.'
_chemical_formula_sum  'Cl0.42 Fe2 H2.32 O4'
_chemical_name_mineral  'Akaganeite'
_symmetry_space_group_name_H-M 'I 1 2/m 1'
_space_group_IT_number 12
_space_group_crystal_system 'monoclinic'
loop_
_symmetry_equiv_pos_as_xyz
   'x, y, z'
   'x+0.5, y+0.5, z+0.5'
   '-x, y, -z'
   '-x+0.5, y+0.5, -z+0.5'
   '-x, -y, -z'
   '-x+0.5, -y+0.5, -z+0.5'
   'x, -y, z'
   'x+0.5, -y+0.5, z+0.5'
_cell_length_a       10.58700
_cell_length_b        3.03110
_cell_length_c       10.51500
_cell_angle_alpha    90.0000
_cell_angle_beta     90.0300
_cell_angle_gamma    90.0000
loop_
_atom_site_label
_atom_site_fract_x
_atom_site_fract_y
_atom_site_fract_z
_atom_site_occupancy
_atom_site_B_iso_or_equiv
fe      0.854   0.000   0.342    1.00000    1.318
fe      0.345   0.000   0.145    1.00000    1.318
o      0.663   0.000   0.288    1.00000    0.963
o      0.662   0.000   0.043    1.00000    0.963
o      0.295   0.000   0.335    1.00000    0.963
o      0.037   0.000   0.325    1.00000    0.963
cl      0.000   0.132   0.000    0.42000    5.921
h      0.367   0.098   0.626    0.50000    0.710
h      0.348   0.056   0.405    0.50000    0.710
h      -0.105   0.000   0.122    0.32000    0.710
_cell_measurement_wavelength    1.541874
_cell_measurement_radiation   'x-rays'
_exptl_crystal_density_diffrn    3.798000
loop_
_pd_peak_d_spacing
_pd_peak_intensity
     7.462506       1000.00
     7.458600        845.72
     5.293499        508.70
     5.257499        617.16
     3.731253         90.29
     3.729300         77.58
     3.346133        462.68
     3.345077        835.99
     3.327910        875.30
     3.326871        468.89
     2.914021          2.51
     2.912505          6.34
     2.646750        428.41
     2.628750        343.50
     2.551920        549.31
     2.551607        523.84
     2.548869        433.14
     2.548558        579.53
     2.487502         98.69
     2.486200         85.69
     2.364576         15.84
     2.363581         84.23
     2.354910         85.81
     2.353928         25.96
     2.299371        355.98
     2.292694        321.13
     2.106965         69.10
     2.106438         54.80
     2.104104         50.81
     2.103579         71.26
     2.075943         54.79
     2.075522         17.12
     2.062905         26.89
     2.062492         36.51
     1.958906        143.73
     1.958624        188.96
     1.952031        159.91
     1.951751        178.04
     1.865627         90.98
     1.864650         73.41
     1.812782          7.53
     1.811942          1.45
     1.806968          0.08
     1.806136          5.25
     1.764500        265.42
     1.752500        228.96
     1.735816         24.52
     1.733232          8.90
     1.732644         12.37
     1.731002         17.89
     1.730417         12.52
     1.727856         46.88
     1.673067         13.44
     1.672538          1.17
     1.663955          0.02
     1.663435         15.27
     1.648513        234.98
     1.648092        395.40
     1.642776        416.79
     1.642359        270.18
     1.515550        226.69
     1.509244         82.66
     1.509050         12.84
     1.501922          7.70
     1.501730         88.46
     1.497132         13.78
     1.496912         54.43
     1.492501          4.31
     1.491720          1.12
     1.487355         42.93
     1.487139          8.64
     1.485230         34.31
     1.485200         32.06
     1.465414          9.30
     1.464704         30.63
     1.461571         35.08
     1.460866          6.13
     1.457010         30.58
     1.456253         35.97
     1.448801        193.96
     1.448230         95.38
     1.447127         80.25
     1.446557        179.64
     1.404142          1.15
     1.404038          0.67
     1.398554         12.37
     1.398091          0.35
     1.394049          1.04
     1.393590         10.21
     1.388926         73.14
     1.388397         50.86
     1.382402         46.88
     1.381881         72.90
     1.380547         27.52
     1.380473         52.53
     1.379259         56.46
     1.379184         26.61
     1.353314          0.21
     1.345930          2.32
     1.323375          1.91
     1.315197         75.36
     1.314375          0.19
     1.312972         64.12
     1.310740          0.40
     1.310444          7.08
     1.304572          6.87
     1.304280          3.57
     1.294253         33.92
     1.294069         32.57
     1.283503          2.63
     1.283185          3.22
     1.275960          1.38
     1.275804          6.64
     1.275796          3.35
     1.275483          4.65
     1.274435          6.24
     1.274279          2.46
     1.243751         15.78
     1.243100         26.67
     1.234796         48.01
     1.234265         10.29
     1.233528         10.56
     1.232999         33.13
     1.228172          7.07
     1.227562          7.51
     1.225455         11.81
     1.224850          7.27
     1.224059          5.13
     1.223972          5.78
     1.221369          8.39
     1.221284          3.32
     1.204898         18.47
     1.204767         11.40
     1.203457          3.28
     1.202998          1.16
     1.199947          2.75
     1.199492          7.39
     1.198199          6.67
     1.198070         27.75
     1.182288          0.71
     1.181791          6.53
     1.177455          5.30
     1.176964          0.55
     1.176323         18.96
     1.176078         14.73
     1.169108          4.35
     1.168973         15.90
     1.162731          4.31
     1.162509          0.00
     1.161350         18.03
     1.161217          5.18
     1.161192          0.23
     1.160972          3.27
     1.149686         66.78
     1.146347         59.98
     1.146314          2.01
     1.145974          9.29
     1.141269         10.52
     1.140933          1.73
     1.123225          8.16
     1.123066          1.47
     1.120456          0.34
     1.120297          8.69
     1.115378          5.25
     1.115026          6.42
     1.109303          8.76
     1.108957          6.60
     1.096644          5.71
     1.090154          5.25
     1.073644         29.26
     1.073434         19.76
     1.071363          0.33
     1.070878         13.60
     1.070385         11.39
     1.069900          0.06
     1.067850         17.80
     1.067643         25.11
     1.066072         15.95
     1.065514         18.94
     1.065084          9.47
     1.065005         30.10
     1.063413          0.76
     1.063130          0.03
     1.061547         25.13
     1.061468          6.28
     1.058700         24.07
     1.056357          3.63
     1.055825          0.01
     1.054339          0.01
     1.053811          2.09
     1.053483          6.92
     1.053219         19.51
     1.052052         22.35
     1.051789          5.40
     1.051500         19.35
     1.050843         38.26
     1.050407         30.40
     1.048080         24.84
     1.047647         31.04
     1.037972          6.81
     1.037761          0.28
     1.031453          0.00
     1.031246         12.46
     1.026867          0.42
     1.026409          0.22
     1.023963         36.01
     1.023751         24.80
     1.023170          1.17
     1.022717          1.23
     1.021341         22.43
     1.021130         36.59
     1.012281         11.31
     1.011930          9.33
     1.008173          5.62
     1.007826          6.34
##############################################################################
###                            Comments                                    ###
##############################################################################
###   Diffraction pattern calculated by Match!. 
###   I/Ic calculated by Match!. 
##############################################################################


