##############################################################################
###               Crystal structure data exported by Match!                ###
##############################################################################
###                           Data published by:                           ###
###                                                                        ###
###               COD (Crystallography Open Database)
##############################################################################
data_1000037
_citation_journal_full    'American Mineralogist'
_citation_journal_volume  '52'
_citation_page_first  '1877'
_citation_page_last   '1880'
_citation_year  '1967'
_citation_title  'A Refinement of the Structure of Barite'
loop_
_publ_author_name
  'Colville A A'
  'Staudhammer K'
_chemical_formula_sum  'Ba O4 S'
_chemical_name_mineral  'Baryte'
_chemical_name_common  'Barium sulfate'
_symmetry_space_group_name_H-M 'P n m a'
_space_group_IT_number 62
_space_group_crystal_system 'orthorhombic'
loop_
_symmetry_equiv_pos_as_xyz
   'x, y, z'
   '-x+0.5, -y, z+0.5'
   'x+0.5, -y+0.5, -z+0.5'
   '-x, y+0.5, -z'
   '-x, -y, -z'
   'x+0.5, y, -z+0.5'
   '-x+0.5, y+0.5, z+0.5'
   'x, -y+0.5, z'
_cell_length_a        8.88400
_cell_length_b        5.45800
_cell_length_c        7.15300
_cell_angle_alpha    90.0000
_cell_angle_beta     90.0000
_cell_angle_gamma    90.0000
_cell_formula_units_Z 4
loop_
_atom_site_label
_atom_site_fract_x
_atom_site_fract_y
_atom_site_fract_z
_atom_site_occupancy
_atom_site_B_iso_or_equiv
ba      0.185   0.250   0.158    1.00000    1.000
s      0.437   0.750   0.191    1.00000    1.000
o      0.588   0.750   0.106    1.00000    1.000
o      0.319   0.750   0.051    1.00000    1.000
o      0.419   0.970   0.319    1.00000    1.000
_cell_measurement_wavelength    1.541874
_cell_measurement_radiation   'x-rays'
_exptl_crystal_density_diffrn    4.469000
loop_
_pd_peak_d_spacing
_pd_peak_intensity
     4.442000        142.64
     4.339098        322.68
     3.898903        513.25
     3.773580         97.55
     3.576500        246.76
     3.445219        987.72
     3.317740        656.36
     3.103947       1000.00
     2.835051        519.21
     2.729000        470.16
     2.481251        142.41
     2.325235        152.84
     2.280933         76.48
     2.211332        270.70
     2.169549         28.79
     2.107612        513.48
     2.057197        209.22
     1.932208         75.55
     1.857172        192.51
     1.788250         42.68
     1.758177         58.27
     1.729462         41.70
     1.674730        154.88
     1.638811        100.80
     1.595229         95.69
     1.535365        195.36
     1.530794          2.12
     1.527651         89.88
     1.523258         16.96
     1.514989          6.53
     1.495730         36.15
     1.480667          6.07
     1.474972         92.67
     1.473921         39.26
     1.457761         46.62
     1.449929          7.75
     1.446366          0.32
     1.429016         47.71
     1.427570         93.30
     1.424717         50.34
     1.422306         96.14
     1.417525         23.86
     1.412405          0.82
     1.407418         65.04
     1.401325         92.52
     1.396319          0.29
     1.392879          0.70
     1.383853         53.47
     1.380941          0.42
     1.378526         47.50
     1.375296          0.17
     1.374635          8.52
     1.368061          0.04
     1.367363          1.44
     1.364500         66.36
     1.361720         23.82
     1.349624         56.07
     1.335094          4.22
     1.327011         10.88
     1.325333          0.83
     1.321221         58.82
     1.309661          3.66
     1.304348          9.99
     1.301447         27.13
     1.299634         31.48
     1.288160          4.70
     1.283188         12.83
     1.280426         11.20
     1.274868         13.65
     1.262964        110.92
     1.262390         21.98
     1.261941         59.18
     1.260416          1.10
     1.257860          0.63
     1.254363          1.77
     1.253716          9.82
     1.251550          6.12
     1.249626          0.20
     1.240626          0.48
     1.228095         22.80
     1.225809         10.32
     1.225730          0.24
     1.225398          0.41
     1.222992          4.76
     1.221081         15.13
     1.218456         48.58
     1.218107          9.40
     1.212019          0.23
     1.202696         47.92
     1.197755         28.73
     1.196069         40.62
     1.192167         21.74
     1.181575          0.77
     1.174519          0.27
     1.173900          5.54
     1.171326         17.11
     1.170968          7.59
     1.168344         11.42
     1.164905          6.92
     1.162618          1.18
     1.154824          0.01
     1.151419          6.68
     1.148406         20.36
     1.147558         68.05
     1.144313          3.18
     1.144266          0.01
     1.142353          0.85
     1.140467          5.03
     1.136175          0.15
     1.133886         31.94
     1.126622         38.58
     1.124569         28.31
     1.121705         27.16
     1.120320          0.94
     1.116356          8.76
     1.115667          0.25
     1.114303          0.42
     1.110500         26.28
     1.105968         28.46
     1.105913          1.44
     1.105666          0.10
     1.100558         52.60
     1.099612         55.34
     1.097439         39.59
     1.097354          0.92
     1.095473         49.13
     1.093421          5.48
     1.092472         18.92
     1.091782          5.78
     1.090175         26.74
     1.088204          1.18
     1.084775         12.59
     1.084305          0.30
     1.083887          4.38
     1.079107          4.32
     1.076777         20.60
     1.075826         14.65
     1.071233          9.84
     1.070026         10.35
     1.060859         17.50
     1.060552          7.33
     1.060060         22.71
     1.053806          7.84
     1.052275         10.15
     1.051316          8.71
     1.050409          0.21
     1.048608         27.65
     1.045006          0.40
     1.036917         11.25
     1.036387          0.32
     1.036070          9.20
     1.035822          6.40
     1.034978         12.52
     1.034649          0.32
     1.031619          5.07
     1.031481         21.67
     1.030052          6.63
     1.028832          7.44
     1.028599         32.25
     1.024950          6.56
     1.018586          0.31
     1.018126          0.05
     1.016857          5.06
     1.016356          8.62
     1.015164          3.94
     1.013889          0.64
     1.011026         32.88
     1.006670          0.21
##############################################################################
###                            Comments                                    ###
##############################################################################
###   from Cow Green Mine, Teesdale, Durham, England
###   Diffraction pattern calculated by Match!. 
###   I/Ic calculated by Match!. 
###   Space group has been derived from given symmetry operations. 
##############################################################################


