##############################################################################
###               Crystal structure data exported by Match!                ###
##############################################################################
###                           Data published by:                           ###
###                                                                        ###
###               COD (Crystallography Open Database)
##############################################################################
data_9001683
_citation_journal_full    'American Mineralogist'
_citation_journal_volume  '80'
_citation_page_first  '454'
_citation_page_last   '456'
_citation_year  '1995'
_citation_title  'H in rutile-type compounds: II. Crystal chemistry of Al substitution inH-bearing stishoviteSample: pure-silica'
loop_
_publ_author_name
  'Smyth J. R.'
  'Swope R. J.'
  'Pawley A. R.'
_chemical_formula_sum  'O2 Si'
_chemical_name_mineral  'Stishovite'
_symmetry_space_group_name_H-M 'P 42/m n m'
_space_group_IT_number 136
_space_group_crystal_system 'tetragonal'
loop_
_symmetry_equiv_pos_as_xyz
   'x, y, z'
   '-y+0.5, x+0.5, z+0.5'
   '-x, -y, z'
   'y+0.5, -x+0.5, z+0.5'
   'x+0.5, -y+0.5, -z+0.5'
   '-x+0.5, y+0.5, -z+0.5'
   'y, x, -z'
   '-y, -x, -z'
   '-x, -y, -z'
   'y+0.5, -x+0.5, -z+0.5'
   'x, y, -z'
   '-y+0.5, x+0.5, -z+0.5'
   '-x+0.5, y+0.5, z+0.5'
   'x+0.5, -y+0.5, z+0.5'
   '-y, -x, z'
   'y, x, z'
_cell_length_a        4.17730
_cell_length_b        4.17730
_cell_length_c        2.66520
_cell_angle_alpha    90.0000
_cell_angle_beta     90.0000
_cell_angle_gamma    90.0000
loop_
_atom_site_label
_atom_site_fract_x
_atom_site_fract_y
_atom_site_fract_z
_atom_site_occupancy
_atom_site_B_iso_or_equiv
si      0.000   0.000   0.000    1.00000    0.128
o      0.306   0.306   0.000    1.00000    0.168
_cell_measurement_wavelength    1.541874
_cell_measurement_radiation   'x-rays'
_exptl_crystal_density_diffrn    4.291000
loop_
_pd_peak_d_spacing
_pd_peak_intensity
     2.953797       1000.00
     2.246840        250.00
     2.088650          6.76
     1.978767        402.80
     1.868145        150.36
     1.529768        592.06
     1.476899        199.39
     1.332600        103.41
     1.320978         63.89
     1.291816         13.41
     1.234150        272.31
     1.214704        105.78
     1.183576         22.57
     1.158575          4.90
     1.123420         11.43
     1.084873         27.69
     1.062524         30.01
     1.044325         37.22
     1.013144         26.58
##############################################################################
###                            Comments                                    ###
##############################################################################
###   Diffraction pattern calculated by Match!. 
###   I/Ic calculated by Match!. 
###   Space group has been derived from given symmetry operations. 
##############################################################################


