##############################################################################
###               Crystal structure data exported by Match!                ###
##############################################################################
###                           Data published by:                           ###
###                                                                        ###
###               COD (Crystallography Open Database)
##############################################################################
data_9011780
_citation_journal_full    'Kristallografiya'
_citation_journal_volume  '42'
_citation_page_first  '1014'
_citation_page_last   '1021'
_citation_year  '1997'
_citation_title  'Crystal structure of triclinic lazuriteLoclaity: Malaya-Bystray deposit, Lake Baikal, Russia'
loop_
_publ_author_name
  'Evsyunin V. G.'
  'Sapozhnikov A. N.'
  'Kashaev A. A.'
  'Rastsvetaeva R. K.'
_chemical_formula_sum  'Al24 Ca4 Na28 O119 S8.49 Si24'
_chemical_name_mineral  'Lazurite'
_symmetry_space_group_name_H-M 'P 1'
_space_group_IT_number 1
_space_group_crystal_system 'triclinic'
loop_
_symmetry_equiv_pos_as_xyz
   'x, y, z'
_cell_length_a        9.06700
_cell_length_b       12.89600
_cell_length_c       25.70800
_cell_angle_alpha    89.9800
_cell_angle_beta     90.0800
_cell_angle_gamma    90.2200
loop_
_atom_site_label
_atom_site_fract_x
_atom_site_fract_y
_atom_site_fract_z
_atom_site_occupancy
_atom_site_B_iso_or_equiv
na      0.809   0.314   0.249    1.00000    2.100
na      0.307   0.182   0.250    1.00000    2.700
na      0.160   0.507   0.154    1.00000    2.499
na      0.180   0.494   0.344    1.00000    3.299
na      0.698   0.824   0.748    1.00000    1.999
na      0.225   0.493   0.862    1.00000    2.900
na      0.214   0.188   0.506    1.00000    2.400
na      0.265   0.492   0.636    1.00000    2.400
na      0.813   0.190   0.004    1.00000    2.600
na      0.226   0.217   0.998    1.00000    2.799
na      0.344   0.996   0.658    1.00000    2.199
na      0.803   0.218   0.498    1.00000    3.399
na      0.199   0.689   0.749    1.00000    1.899
na      0.658   0.006   0.159    1.00000    2.100
na      0.844   0.497   0.657    1.00000    1.699
na      0.846   0.003   0.598    1.00000    2.100
na      0.161   0.000   0.009    1.00000    2.400
na      0.774   0.513   0.360    1.00000    2.499
na      0.782   0.812   0.005    1.00000    2.199
na      0.830   0.509   0.842    1.00000    2.199
na      0.194   0.814   0.505    1.00000    2.199
na      0.195   0.790   0.995    1.00000    2.400
na      0.777   0.781   0.496    1.00000    2.600
na      0.744   0.508   0.135    1.00000    2.199
ca      0.311   0.243   0.753    0.75000    1.699
na      0.311   0.243   0.753    0.25000    1.699
ca      0.702   0.756   0.252    0.55000    1.899
na      0.702   0.756   0.252    0.45000    1.899
ca      0.757   0.005   0.877    0.75000    1.599
na      0.757   0.005   0.877    0.25000    1.599
ca      0.227   0.759   0.251    0.45000    1.899
na      0.227   0.759   0.251    0.55000    1.899
ca      0.781   0.247   0.751    0.25000    1.899
na      0.781   0.247   0.751    0.75000    1.899
ca      0.718   0.002   0.369    0.50000    1.500
na      0.718   0.002   0.369    0.50000    1.500
ca      0.236   -0.001   0.377    0.50000    2.600
na      0.236   -0.001   0.377    0.50000    2.600
ca      0.282   0.999   0.869    0.25000    1.899
na      0.282   0.999   0.869    0.75000    1.899
si      0.244   0.248   0.374    1.00000    0.799
si      0.749   0.258   0.374    1.00000    0.700
si      0.276   0.258   0.877    1.00000    0.799
si      0.555   0.377   0.688    1.00000    0.799
si      0.504   0.875   0.937    1.00000    0.900
si      0.485   0.374   0.187    1.00000    0.799
si      0.979   0.625   0.440    1.00000    0.700
si      0.048   0.121   0.687    1.00000    0.700
si      0.544   0.121   0.563    1.00000    0.799
si      0.048   0.377   0.560    1.00000    1.099
si      0.271   0.750   0.625    1.00000    0.900
si      0.464   0.621   0.313    1.00000    0.600
si      0.971   0.876   0.313    1.00000    0.600
si      0.990   0.625   0.935    1.00000    0.799
si      0.989   0.374   0.066    1.00000    0.700
si      0.768   0.752   0.627    1.00000    0.900
si      0.779   0.247   0.878    1.00000    0.499
si      0.483   0.879   0.440    1.00000    0.700
si      0.485   0.127   0.066    1.00000    0.700
si      0.506   0.629   0.809    1.00000    0.799
si      0.709   0.752   0.126    1.00000    0.799
si      0.010   0.875   0.811    1.00000    0.900
si      0.209   0.752   0.122    1.00000    0.799
si      -0.018   0.131   0.187    1.00000    0.600
al      0.495   0.130   0.438    1.00000    0.799
al      0.546   0.383   0.815    1.00000    0.600
al      0.023   0.376   0.942    1.00000    0.900
al      -0.007   0.127   0.311    1.00000    0.799
al      0.795   0.251   0.623    1.00000    0.799
al      0.011   0.376   0.436    1.00000    0.900
al      0.299   0.247   0.626    1.00000    0.799
al      0.497   0.373   0.311    1.00000    0.799
al      0.516   0.127   0.941    1.00000    0.900
al      0.734   0.254   0.127    1.00000    0.700
al      0.032   0.125   0.813    1.00000    0.600
al      0.236   0.247   0.127    1.00000    0.700
al      0.720   0.747   0.376    1.00000    0.799
al      0.752   0.754   0.871    1.00000    0.900
al      0.024   0.871   0.686    1.00000    0.700
al      0.520   0.628   0.686    1.00000    0.900
al      0.520   0.873   0.565    1.00000    0.900
al      0.017   0.628   0.566    1.00000    0.900
al      0.253   0.745   0.874    1.00000    0.900
al      0.221   0.751   0.379    1.00000    0.700
al      0.961   0.625   0.060    1.00000    1.000
al      -0.040   0.881   0.186    1.00000    0.900
al      0.456   0.623   0.186    1.00000    0.799
al      0.467   0.879   0.063    1.00000    1.000
s      0.985   0.002   0.485    1.00000    1.500
s      0.054   0.467   0.751    1.00000    1.299
s      0.531   0.033   0.762    1.00000    2.100
s      0.956   0.536   0.251    1.00000    1.899
s      0.012   0.998   0.985    1.00000    1.500
s      0.473   -0.030   0.261    1.00000    2.100
s      0.554   0.484   -0.019    0.89000    26.599
s      0.436   0.621   0.022    0.82000    18.299
s      0.451   0.536   0.486    0.48000    20.800
s      0.440   0.382   0.482    0.30000    10.499
o      0.527   0.352   0.751    1.00000    0.799
o      0.128   0.151   0.150    1.00000    1.200
o      0.038   0.347   0.502    1.00000    1.200
o      0.953   -0.001   0.324    1.00000    1.500
o      0.431   0.492   0.174    1.00000    1.800
o      0.442   0.500   0.323    1.00000    1.000
o      0.536   0.358   0.247    1.00000    1.000
o      0.353   0.290   0.327    1.00000    1.399
o      0.661   0.348   0.345    1.00000    1.200
o      0.836   0.196   0.327    1.00000    1.200
o      0.353   0.299   0.177    1.00000    0.499
o      0.039   0.349   0.005    1.00000    1.500
o      0.146   0.159   0.344    1.00000    1.599
o      0.177   0.335   0.908    1.00000    1.599
o      0.188   0.185   0.833    1.00000    1.699
o      0.627   0.153   0.102    1.00000    1.299
o      0.971   0.854   0.751    1.00000    0.900
o      0.456   0.643   0.750    1.00000    1.299
o      0.125   0.351   0.105    1.00000    1.000
o      0.872   0.653   0.607    1.00000    1.399
o      -0.069   0.009   0.176    1.00000    1.399
o      0.843   0.203   0.176    1.00000    0.900
o      0.909   0.161   0.653    1.00000    1.500
o      0.341   0.201   0.077    1.00000    1.500
o      0.627   0.350   0.150    1.00000    1.399
o      0.190   0.316   0.582    1.00000    1.899
o      0.388   0.330   0.842    1.00000    1.200
o      0.009   0.150   0.748    1.00000    0.799
o      0.697   0.318   0.668    1.00000    1.899
o      0.606   0.670   0.340    1.00000    1.599
o      0.037   0.152   0.246    1.00000    1.299
o      0.368   0.652   0.646    1.00000    1.500
o      0.515   0.148   0.505    1.00000    1.899
o      0.434   0.010   0.076    1.00000    1.500
o      0.844   0.303   0.076    1.00000    1.899
o      0.632   0.832   0.418    1.00000    1.599
o      0.331   0.191   0.419    1.00000    1.099
o      0.046   0.993   0.823    1.00000    1.399
o      0.113   0.837   0.155    1.00000    1.699
o      0.072   0.498   0.574    1.00000    1.500
o      0.152   0.808   0.826    1.00000    1.500
o      0.643   0.708   0.823    1.00000    1.200
o      0.687   0.186   0.579    1.00000    1.699
o      0.482   -0.001   0.423    1.00000    1.399
o      0.647   0.171   0.401    1.00000    1.699
o      0.611   0.672   0.159    1.00000    1.699
o      0.355   0.646   0.843    1.00000    1.699
o      0.199   0.180   0.674    1.00000    1.599
o      0.371   0.843   0.603    1.00000    1.099
o      0.112   0.836   0.341    1.00000    1.399
o      0.303   0.691   0.164    1.00000    1.599
o      0.171   0.791   0.673    1.00000    1.299
o      0.983   0.850   0.253    1.00000    1.500
o      0.154   0.342   0.395    1.00000    1.000
o      0.866   0.850   0.842    1.00000    1.399
o      0.392   0.154   0.595    1.00000    1.999
o      0.470   0.858   0.503    1.00000    1.800
o      0.833   0.673   0.413    1.00000    1.599
o      0.935   0.494   0.074    1.00000    1.999
o      0.566   0.500   0.675    1.00000    1.200
o      0.875   0.168   0.845    1.00000    1.699
o      0.402   0.336   0.661    1.00000    1.099
o      0.666   0.709   0.673    1.00000    1.299
o      0.869   0.849   0.648    1.00000    1.200
o      0.671   0.792   0.578    1.00000    1.500
o      0.168   0.710   0.578    1.00000    1.500
o      0.657   0.827   0.918    1.00000    1.399
o      0.666   0.175   0.907    1.00000    1.999
o      0.894   0.346   0.590    1.00000    1.699
o      0.069   -0.001   0.675    1.00000    1.299
o      0.336   0.832   0.412    1.00000    1.699
o      0.617   0.838   0.096    1.00000    1.999
o      0.565   0.514   0.823    1.00000    1.200
o      0.817   0.825   0.332    1.00000    1.699
o      0.313   0.674   0.332    1.00000    1.800
o      0.575   -0.001   0.575    1.00000    1.800
o      0.011   0.506   0.924    1.00000    1.699
o      0.807   0.692   0.084    1.00000    1.899
o      0.534   0.150   0.007    1.00000    2.300
o      0.704   0.330   0.839    1.00000    1.599
o      0.125   0.682   0.424    1.00000    2.400
o      0.955   0.655   0.994    1.00000    2.100
o      0.850   0.305   0.417    1.00000    1.899
o      0.512   -0.003   0.923    1.00000    1.500
o      0.353   0.182   0.920    1.00000    1.399
o      0.481   0.860   0.998    1.00000    2.600
o      0.853   0.657   0.898    1.00000    1.599
o      0.362   0.835   0.907    1.00000    2.400
o      0.801   0.816   0.168    1.00000    1.399
o      0.985   0.506   0.424    1.00000    1.800
o      0.469   0.650   0.254    1.00000    1.599
o      0.876   0.309   0.920    1.00000    2.600
o      0.141   0.690   0.917    1.00000    1.599
o      0.304   0.815   0.079    1.00000    1.500
o      0.960   0.652   0.502    1.00000    2.400
o      0.111   0.670   0.092    1.00000    3.399
o      0.058   0.546   0.795    1.00000    32.698
o      0.132   -0.006   0.464    1.00000    5.200
o      0.084   0.523   0.704    1.00000    2.900
o      0.160   0.391   0.761    1.00000    4.199
o      0.582   0.131   0.742    1.00000    9.999
o      0.372   0.047   0.781    1.00000    9.500
o      0.955   0.462   0.295    1.00000    3.999
o      0.915   0.483   0.205    1.00000    2.700
o      0.844   0.608   0.261    1.00000    4.199
o      0.467   0.875   0.240    1.00000    13.699
o      0.385   0.013   0.299    1.00000    9.200
o      0.124   0.983   0.946    1.00000    5.500
o      0.871   0.017   0.960    1.00000    3.599
o      -0.096   0.419   0.750    1.00000    3.800
o      0.099   0.581   0.248    1.00000    3.599
o      0.876   0.011   0.445    1.00000    4.499
o      0.958   -0.090   0.518    1.00000    3.999
o      0.978   0.092   0.520    1.00000    3.599
o      0.522   0.961   0.718    1.00000    5.599
o      0.043   0.092   0.020    1.00000    3.599
o      0.468   0.051   0.221    1.00000    3.800
o      0.628   0.995   0.801    1.00000    5.599
o      0.629   0.954   0.284    1.00000    13.800
_cell_measurement_wavelength    1.541874
_cell_measurement_radiation   'x-rays'
_exptl_crystal_density_diffrn    2.376000
loop_
_pd_peak_d_spacing
_pd_peak_intensity
    25.707974         29.55
    12.895904        661.48
    12.853987        936.75
    11.528507         49.28
    11.525332        213.96
     9.105490        420.30
     9.102361        367.79
     9.066925        190.12
     8.569325         10.75
     8.554442         52.36
     8.546959          1.40
     7.430581         99.83
     7.414018        127.98
     7.404281        118.86
     7.403784        148.12
     7.140936          3.68
     7.138370         54.90
     7.136109         38.80
     7.135828          1.00
     7.116395         36.30
     7.112831         11.42
     6.447952        353.15
     6.436791        321.74
     6.429314        276.59
     6.426993        251.60
     6.418252        253.56
     6.413026        271.88
     6.254738          1.10
     6.253724         10.55
     6.232255         24.27
     6.223581         13.26
     5.764254         61.97
     5.762666         78.80
     5.753002         41.53
     5.751423         35.17
     5.617696         29.21
     5.610243         20.62
     5.604995         66.68
     5.599774         35.61
     5.264248         61.61
     5.246786         29.12
     5.245192          2.72
     5.239885         18.48
     5.158340         15.54
     5.156129         11.68
     5.153158          2.63
     5.151456          5.56
     5.141595          3.22
     5.139843          1.54
     5.138781         14.12
     4.873402         20.85
     4.869676         25.73
     4.864194          8.61
     4.857742          3.77
     4.857321         62.30
     4.855704         19.87
     4.855529         67.92
     4.851178          0.63
     4.776554         51.52
     4.775425         27.85
     4.552745        122.08
     4.551181        172.79
     4.533462        130.88
     4.487668         29.66
     4.483305         14.52
     4.475204          0.49
     4.474730         21.81
     4.472628          6.13
     4.469850          1.47
     4.465641         19.23
     4.463511         24.81
     4.298635          0.03
     4.284662          6.90
     4.282032          7.90
     4.277221         15.61
     4.273480         13.81
     4.271757         12.17
     4.240010          3.31
     4.239536          3.28
     4.230741         63.77
     4.225435         36.09
     4.224995         74.95
     4.224820          3.65
     4.222860          2.89
     4.221268         37.69
     4.214796          7.37
     4.213160         17.79
     4.077133         27.38
     4.076290         39.09
     4.074681         41.94
     4.070327          0.02
     4.066525          4.60
     4.065689         13.11
     4.064710         35.04
     4.064286          8.78
     4.062610          7.24
     4.060798         37.44
     4.055221          8.58
     4.052308         48.38
     4.020679          2.05
     4.019332          9.59
     4.009558         61.16
     4.004937         70.66
     3.889998         13.83
     3.878453         16.70
     3.875984         14.86
     3.871809         11.04
     3.846733          3.87
     3.845698          1.80
     3.842836          1.54
     3.841777          4.23
     3.835217          9.12
     3.834893          6.77
     3.832630          0.47
     3.828245          1.42
     3.824910          2.67
     3.821244          5.01
     3.724176        815.23
     3.722299        893.55
     3.715290        679.26
     3.713947        838.68
     3.713405        842.78
     3.712816        862.74
     3.709952        859.21
     3.709638        916.06
     3.707009        728.01
     3.706924        806.29
     3.702141        742.59
     3.701892       1000.00
     3.680261          1.48
     3.677788         16.99
     3.676392          6.04
     3.676251          2.65
     3.672704         31.61
     3.672568          1.43
     3.670768         26.96
     3.664586         21.15
     3.663612         30.88
     3.573659          7.38
     3.572524          3.39
     3.570468         19.09
     3.569185         15.02
     3.568054         26.78
     3.567914          6.38
     3.565895          2.02
     3.561187          3.66
     3.559581          4.62
     3.558198          1.59
     3.556416          2.40
     3.555643          2.40
     3.543339          0.29
     3.540914          3.59
     3.533783         15.83
     3.533022         10.74
     3.532447          9.15
     3.531807         10.57
     3.410377          0.35
     3.407040          0.92
     3.405586          0.88
     3.402780        158.12
     3.402281          1.73
     3.399517          3.78
     3.398074        125.32
     3.397186          1.50
     3.329241          6.59
     3.326559          2.45
     3.324856          4.25
     3.321308          0.87
     3.321083         17.45
     3.320241          0.36
     3.319129          0.58
     3.317414          2.81
     3.298449          7.66
     3.297333          0.17
     3.294137         53.19
     3.292695          1.46
     3.291274         41.52
     3.290629         48.32
     3.288807         47.39
     3.288061          0.16
     3.287648          2.61
     3.283769          8.03
     3.223976          4.18
     3.218396          5.76
     3.214657          7.45
     3.213497         11.79
     3.209126         14.10
     3.206513         12.19
     3.199055          1.28
     3.198784          2.20
     3.191704          0.42
     3.190760          1.27
     3.127369         14.18
     3.126862         14.29
     3.125305        175.63
     3.118396          5.92
     3.117894          4.12
     3.116128         31.41
     3.113346         52.18
     3.111791         32.52
     3.103540          2.01
     3.102913          7.78
     3.102013          3.62
     3.100825          2.14
     3.096744          1.38
     3.095890          7.67
     3.091025          1.60
     3.090502          3.28
     3.041347          0.18
     3.037675          5.01
     3.035986          5.25
     3.035163          9.23
     3.034120         10.63
     3.033984         26.16
     3.030954         22.53
     3.030219         11.22
     3.027559          2.79
     3.026958         18.65
     3.026617          6.26
     3.026346         19.16
     3.025364         30.71
     3.023326          6.00
     3.022308         13.84
     3.020564          8.06
     3.020005         13.23
     3.017830          4.56
     3.017146          0.15
     3.013558         11.93
     3.013295          6.40
     3.013123          3.44
     3.013023          2.11
     3.010476          3.67
     3.009460          0.99
     3.009179          0.05
     3.007688          1.47
     3.005571          8.38
     3.002887          7.44
     3.002122          1.45
     3.001151          3.83
     2.960156         17.71
     2.959105         20.74
     2.952938          1.89
     2.952749          2.29
     2.950933          1.63
     2.948822          5.09
     2.948051          2.98
     2.946794         10.61
     2.945090          1.77
     2.942992          5.28
     2.941163          5.34
     2.940071          5.74
     2.937274          7.77
     2.934984          8.28
     2.926872          8.09
     2.926429          8.11
     2.925540         13.42
     2.925477          5.27
     2.921452         13.58
     2.920609          8.99
     2.882127        107.30
     2.881392        118.80
     2.881333        101.49
     2.878785        122.60
     2.876501        109.02
     2.875803         73.07
     2.875712         82.80
     2.874983         87.05
     2.871603         92.82
     2.869806         66.43
     2.866900          7.27
     2.866852         79.94
     2.865469          2.76
     2.865259         65.78
     2.860148         12.74
     2.859890         19.39
     2.856442          0.07
     2.855626        119.05
     2.851732         90.48
     2.851481          0.41
     2.848986          4.16
     2.811954         11.22
     2.809276         16.12
     2.808848         15.91
     2.805121         11.52
     2.802687         12.75
     2.802497         20.64
     2.801128          9.35
     2.799887         21.47
     2.792736          2.76
     2.791788          1.19
     2.789670          0.87
     2.789050          5.94
     2.788645          6.20
     2.786509          1.99
     2.786426          4.17
     2.785726          0.83
     2.783964          5.63
     2.783203          1.45
     2.782039          3.73
     2.779856         10.59
     2.749922          2.09
     2.748238          0.26
     2.744171          6.14
     2.743790         11.40
     2.743486          5.85
     2.741510          3.70
     2.740777          3.76
     2.740650          1.28
     2.739490          1.21
     2.736465          2.36
     2.733527          2.40
     2.732575          2.02
     2.731844          0.52
     2.730999          4.29
     2.725613          0.28
     2.725529          4.15
     2.724803          3.65
     2.723350          1.92
     2.717587          1.43
     2.716949          5.79
     2.681173          0.25
     2.679630          0.36
     2.678834         12.68
     2.675918          5.23
     2.674896          4.79
     2.673452         26.78
     2.672310          2.27
     2.672239         24.82
     2.672074         11.19
     2.671670          0.20
     2.669246          0.04
     2.669202         13.46
     2.667423          3.95
     2.667095          8.65
     2.666332          6.19
     2.665824          7.26
     2.665027          4.67
     2.664138          9.34
     2.664000         11.62
     2.662326          7.88
     2.632124        701.61
     2.623393        524.65
     2.622596        682.88
     2.619942        545.48
     2.618725          2.25
     2.618586          1.32
     2.618146          2.08
     2.616769          6.62
     2.613624         10.34
     2.613142          7.77
     2.612814          4.16
     2.611980          2.44
     2.611466          5.84
     2.611315          1.29
     2.610122          9.62
     2.609329          8.39
     2.609194          0.84
     2.608916          0.29
     2.608432         15.48
     2.607098          2.50
     2.605977         15.10
     2.604257          4.09
     2.603923          1.87
     2.602576          0.44
     2.579181         31.72
     2.579170          0.25
     2.578065          3.88
     2.576579          2.23
     2.575728          6.72
     2.574230          0.26
     2.573382          1.65
     2.571997          0.66
     2.570797         24.25
     2.569922          2.70
     2.569484          2.56
     2.569391          0.04
     2.568464          0.88
     2.566522          1.15
     2.566385         11.18
     2.566210          7.80
     2.557133         18.64
     2.553963         32.78
     2.553672         22.51
     2.550860         33.16
     2.528945         21.25
     2.528610         12.29
     2.526427         11.83
     2.523514          9.82
     2.522292          3.81
     2.521355         24.70
     2.521023         15.64
     2.519725          1.98
     2.519500         34.86
     2.517801         14.21
     2.516878          0.12
     2.515729          3.30
     2.515338          1.17
     2.513708          7.98
     2.511800          4.00
     2.509505          2.97
     2.509132          0.42
     2.508151          0.18
     2.508020          1.00
     2.507411          0.44
     2.483274          1.29
     2.480999          8.12
     2.479144          7.37
     2.478584          4.94
     2.478261          1.28
     2.476860          0.22
     2.476371          3.44
     2.476241          1.12
     2.475906          1.61
     2.474835         10.95
     2.474207          1.03
     2.474138          9.35
     2.472397          0.16
     2.471938          1.90
     2.471601          2.07
     2.471339          1.99
     2.469975          8.39
     2.469507         17.17
     2.468094          2.39
     2.467928          2.08
     2.466838          0.25
     2.466814          0.00
     2.465760          0.78
     2.465128          1.77
     2.456854          1.71
     2.456414          1.31
     2.438515         24.61
     2.437868         22.05
     2.436701         38.53
     2.434838         30.98
     2.433469         39.01
     2.433423         44.09
     2.432726         43.97
     2.432097         15.91
     2.431513         50.10
     2.430509         22.90
     2.429270         29.38
     2.428871         14.11
     2.428671         18.50
     2.428660         28.90
     2.428496         23.71
     2.427852         51.35
     2.427764         21.31
     2.425676         15.74
     2.425589         18.49
     2.425413         18.85
     2.424084         13.63
     2.423273          3.05
     2.423238         16.26
     2.422784         18.04
     2.422447          0.60
     2.419938          6.19
     2.418246        103.47
     2.417105          0.23
     2.415205        110.72
     2.414082          3.33
     2.411851          0.51
     2.393915         13.11
     2.393347         15.28
     2.388277         17.84
     2.387712         13.11
     2.385600          3.97
     2.384691          1.92
     2.381558          5.16
     2.380735          7.82
     2.380670          1.55
     2.380312          2.79
     2.379457          3.34
     2.378712          5.79
     2.378703          0.11
     2.378609          0.15
     2.377826          3.80
     2.375812          1.03
     2.375670          3.24
     2.374685          4.07
     2.374009          7.26
     2.373177          4.02
     2.372132          6.70
     2.370944          3.92
     2.343996          2.34
     2.343328          9.07
     2.341923          1.98
     2.341505          5.01
     2.339212          3.38
     2.338882          9.53
     2.337089          0.09
     2.336730          4.21
     2.335732          3.55
     2.335283          0.33
     2.332089          2.15
     2.316935          0.75
     2.315824          4.51
     2.312349          8.14
     2.312270          2.64
     2.312212          4.58
##############################################################################
###                            Comments                                    ###
##############################################################################
###   Diffraction pattern calculated by Match!. 
###   I/Ic calculated by Match!. 
###   Space group has been derived from given symmetry operations. 
##############################################################################


