##############################################################################
###               Crystal structure data exported by Match!                ###
##############################################################################
###                           Data published by:                           ###
###                                                                        ###
###               COD (Crystallography Open Database)
##############################################################################
data_2020224
_citation_journal_full    'Acta Crystallographica C (39,1983-)'
_citation_journal_volume  '45'
_citation_page_first  '1275'
_citation_page_last   '1277'
_citation_year  '1989'
_citation_title  'Crystal chemistry of cyclo-hexaphosphates. II. Structure of copper cyclo-hexaphosphate tetradecahydrate'
loop_
_publ_author_name
  'Averbuch-Pouchot M.T.'
_chemical_formula_sum  'Cu3 H28 O32 P6'
_chemical_name_common  'Cu3 (P6 O18) (H2 O)14'
_symmetry_space_group_name_H-M 'P -1'
_space_group_IT_number 2
_space_group_crystal_system 'triclinic'
loop_
_symmetry_equiv_pos_as_xyz
   'x, y, z'
   '-x, -y, -z'
_cell_length_a       10.94400
_cell_length_b        7.53900
_cell_length_c        8.97400
_cell_angle_alpha   110.4900
_cell_angle_beta    110.1400
_cell_angle_gamma    77.8200
_cell_formula_units_Z 1
loop_
_atom_site_label
_atom_site_fract_x
_atom_site_fract_y
_atom_site_fract_z
_atom_site_occupancy
_atom_site_B_iso_or_equiv
o      0.168   0.052   -0.007    1.00000    1.000
o      0.378   0.041   0.284    1.00000    1.000
o      0.770   0.877   0.471    1.00000    1.000
o      0.808   0.471   0.380    1.00000    1.000
o      0.322   0.218   0.938    1.00000    1.000
o      0.670   0.386   0.966    1.00000    1.000
o      0.459   0.336   0.686    1.00000    1.000
cu      0.000   0.000   0.000    1.00000    1.000
p      0.778   0.063   0.454    1.00000    1.000
o      0.663   0.209   0.463    1.00000    1.000
cu      0.606   0.430   0.380    1.00000    1.000
o      0.817   0.035   0.291    1.00000    1.000
o      0.103   0.818   0.126    1.00000    1.000
p      0.929   0.285   0.778    1.00000    1.000
o      0.917   0.709   0.170    1.00000    1.000
o      0.976   0.752   0.744    1.00000    1.000
o      0.906   0.153   0.589    1.00000    1.000
o      0.864   0.480   0.787    1.00000    1.000
o      0.570   0.266   0.147    1.00000    1.000
p      0.802   0.868   0.119    1.00000    1.000
o      0.379   0.414   0.385    1.00000    1.000
_cell_measurement_wavelength    1.541874
_cell_measurement_radiation   'x-rays'
_exptl_crystal_density_diffrn    2.277000
loop_
_pd_peak_d_spacing
_pd_peak_intensity
    10.220324        326.16
     8.031163         50.37
     7.478476        128.67
     7.024577         72.34
     6.380350        962.09
     6.317767         45.57
     6.088767       1000.00
     5.566330        935.26
     5.529635        353.69
     5.110162          0.44
     5.037701        387.81
     4.809994         11.22
     4.730376          3.66
     4.638116        289.95
     4.396844        262.60
     4.350751         90.47
     4.337036          0.03
     4.181394         25.19
     4.069253         12.73
     4.053874          6.64
     4.015581         26.07
     3.943912         32.58
     3.933709         59.71
     3.829411          2.35
     3.739238        204.07
     3.732479          0.94
     3.648208        106.38
     3.624623          1.09
     3.533904         51.28
     3.513045        293.96
     3.512288         38.67
     3.461204        265.12
     3.431885         83.54
     3.410292         41.06
     3.406775          6.24
     3.379210          0.45
     3.377085        159.61
     3.339585        139.41
     3.271345        231.53
     3.240475        118.97
     3.221340         22.04
     3.200329        233.84
     3.197140         17.82
     3.190175        143.72
     3.158883         98.81
     3.134848         16.41
     3.105153        332.33
     3.086154         51.71
     3.044383          0.26
     2.977847         14.53
     2.948542        102.73
     2.923103        122.52
     2.911136          2.24
     2.899476         20.96
     2.890954         19.08
     2.856998         23.89
     2.848354          3.67
     2.830514        175.39
     2.817169        129.81
     2.816007         32.40
     2.800366        218.92
     2.798871          9.62
     2.783819          1.10
     2.783165         16.59
     2.774422          0.09
     2.764817         76.71
     2.735229         11.84
     2.725226         44.94
     2.692110          6.07
     2.686519          2.41
     2.679467        111.68
     2.677054         10.60
     2.673652        196.39
     2.673066         39.82
     2.668381         22.64
     2.659321          0.29
     2.626249        176.88
     2.620330         29.48
     2.581715          4.82
     2.555081         37.84
     2.553555          0.51
     2.537650         17.16
     2.529391          0.78
     2.518850          1.70
     2.506076          8.90
     2.503702          3.27
     2.496121          1.75
     2.492825         16.39
     2.486944         12.95
     2.484672        123.53
     2.461343         43.98
     2.456276         93.54
     2.449286        101.63
     2.420372         16.58
     2.408245          1.12
     2.408035          3.43
     2.404997          4.45
     2.379610         28.45
     2.365188         65.95
     2.356294         79.70
     2.341888          4.65
     2.341526          0.16
     2.338926         75.89
     2.337611          1.69
     2.335277         10.48
     2.328631          3.52
     2.325562         34.48
     2.319058          5.94
     2.313405        163.93
     2.287463          6.17
     2.285986          0.70
     2.282481          4.31
     2.277495          4.15
     2.275084         26.43
     2.251308          0.00
     2.250353         28.27
     2.242859          0.46
     2.237410          0.30
     2.235621          0.05
     2.235008         19.68
     2.233549         22.72
     2.232944          1.77
     2.217381         16.49
     2.217288         16.64
     2.216797          5.84
     2.213067          5.32
     2.211174          4.83
     2.209334         18.89
     2.201420          1.56
     2.198422          0.13
     2.189704         21.14
     2.178174          8.23
     2.175376          3.90
     2.168518          7.48
     2.168410         44.24
     2.162253          0.96
     2.161293        190.50
     2.157348         11.07
     2.148354          1.25
     2.146749          3.38
     2.139541         10.61
     2.139410          2.33
     2.137575         15.62
     2.130803         53.27
     2.127115          1.57
     2.126783          3.17
     2.122709         42.23
     2.110711         17.06
     2.106006         39.89
     2.105922         46.58
     2.103506          9.75
     2.090697          4.14
     2.090385         52.81
     2.087955          5.26
     2.084954          0.94
     2.060094         34.68
     2.050332         40.15
     2.048868          0.08
     2.045821         18.70
     2.044065         60.96
     2.036942         33.59
     2.035629         37.21
     2.034626         11.30
     2.029589          8.88
     2.026937          1.39
     2.021517          4.00
     2.019167          1.88
     2.015736          3.54
     2.013120          7.14
     2.008621          0.45
     2.007791          0.63
     2.003039          0.25
     2.000670         20.21
     1.991949          0.96
     1.977390          4.17
     1.971956          6.66
     1.969096          8.26
     1.966854          4.21
     1.964834         18.32
     1.945645          0.29
     1.944825          5.60
     1.941674         22.83
     1.941444          0.47
     1.941150          8.85
     1.940602          6.98
     1.936394          0.91
     1.932767          2.18
     1.923718          7.51
     1.921248         14.08
     1.920473          1.18
     1.914706         18.43
     1.910646          2.83
     1.910218          1.03
     1.903913          4.61
     1.899891          0.36
     1.894545          1.16
     1.889747         21.56
     1.879563          8.76
     1.875619         12.25
     1.873523        126.56
     1.871841         16.99
     1.869619         23.48
     1.868503         17.03
     1.866239         15.53
     1.866028          1.07
     1.865034          0.67
     1.864020         13.98
     1.855443         16.25
     1.854310          5.11
     1.852279          3.82
     1.851387         85.37
     1.843212          2.38
     1.841641         18.67
     1.835278          0.14
     1.832967          2.36
     1.832267          4.64
     1.831568          3.51
     1.827911         32.46
     1.824104          3.60
     1.822155          5.87
     1.820096         20.01
     1.819876          1.81
     1.816665          1.48
     1.812312         12.23
     1.812212          7.68
     1.809232          0.27
     1.806184         40.50
     1.803681          0.78
     1.803391          1.94
     1.799827         16.29
     1.798570          0.17
     1.798014          4.25
     1.795651          0.92
     1.795105          0.60
     1.792608         36.87
     1.791103          9.66
     1.790267          1.38
     1.788921          5.51
     1.784910          8.93
     1.782579         38.04
     1.782090          7.40
     1.777897          1.32
     1.776206          8.72
     1.768918         16.01
     1.766952         16.74
     1.766663          2.93
     1.761727         23.16
     1.761279          1.76
     1.760862          0.25
     1.758254          5.92
     1.757111          0.68
     1.756622          1.27
     1.756523          0.48
     1.756406         15.57
     1.756144          4.33
     1.755651         15.72
     1.754095          9.54
     1.753785          1.91
     1.752613          3.98
     1.751107          0.63
     1.748561          1.25
     1.748540         10.51
     1.742466          2.39
     1.730602          2.25
     1.729573         14.21
     1.727233          0.00
     1.727107          3.89
     1.726710          3.05
     1.725245         24.43
     1.722564          1.08
     1.720931          3.11
     1.715943         26.35
     1.709431          3.38
     1.706334          1.91
     1.705146          6.50
     1.703387          0.35
     1.701811         18.78
     1.698359         22.03
     1.695843          6.04
     1.695616          0.67
     1.693159          2.48
     1.692599         27.49
     1.690301          0.08
     1.689605         10.41
     1.688542         11.01
     1.685365         33.00
     1.680919          5.66
     1.680075          4.25
     1.680053         15.54
     1.679234          0.74
     1.678578         12.08
     1.675629         32.57
     1.670425         12.23
     1.669935          3.06
     1.669792          2.23
     1.665107          4.24
     1.663926          3.96
     1.663197         39.23
     1.662820          5.98
     1.655965          8.92
     1.654894          5.45
     1.653395         45.78
     1.652338         47.00
     1.644099          6.64
     1.643583         12.13
     1.638460          8.01
     1.636651          3.91
     1.635672         66.15
     1.634642         21.93
     1.633809          0.03
     1.632054          4.56
     1.630762          4.04
     1.627646          1.63
     1.627313         36.85
     1.626883         52.31
     1.625086          0.52
     1.624894          0.20
     1.624185          4.76
     1.624113          5.38
     1.623957          0.84
     1.621816          0.80
     1.620237         25.74
     1.618045          0.43
     1.617758         33.86
     1.617742          6.37
     1.616657         10.93
     1.613533         23.76
     1.610670          0.41
     1.608544          0.26
     1.607862         13.97
     1.606233         10.21
     1.605556          0.12
     1.603723          0.12
     1.603331         13.46
     1.600164          0.01
     1.598570          0.46
     1.596668          4.71
     1.595087          4.95
     1.588193          0.03
     1.587439          6.30
     1.582393          1.41
     1.579765          0.52
     1.579442         17.07
     1.578510          0.78
     1.578442          6.49
     1.576792          1.16
     1.575808         20.45
     1.574592         21.33
     1.568273          9.09
     1.567424          0.12
     1.563392         15.42
     1.563163          0.01
     1.563134          1.02
     1.560602          8.12
     1.557455          3.55
     1.557219          0.08
     1.556444          0.58
     1.552576          0.04
     1.552436          1.30
     1.552401          4.55
     1.551118          0.62
     1.548347          1.70
     1.546039          0.72
     1.545542          0.10
     1.545300          0.15
     1.543077         28.53
     1.542978          2.37
     1.541948          7.23
     1.541360         42.06
     1.539007          0.70
     1.536250          3.19
     1.535308          5.00
     1.533480          6.22
     1.532927          0.00
     1.532706          0.02
     1.527759          1.68
     1.525981         45.36
     1.524852          7.49
     1.524354          2.09
     1.523796          1.08
     1.522192          1.35
     1.521734          0.91
     1.519484          0.11
     1.519415          0.50
     1.518823          7.13
     1.517683         24.72
     1.517549          3.28
     1.511172          7.66
     1.509816          2.05
     1.509366         10.11
     1.509225          4.69
     1.508250          4.05
     1.507251          2.52
     1.505964          0.48
     1.505953          5.60
     1.505247          0.00
     1.503548          0.05
     1.503547          9.41
     1.502554          0.00
     1.499408         23.31
     1.499188          9.01
     1.495695          2.79
     1.494896          7.81
     1.493630          0.08
     1.490654          1.91
     1.489581          1.63
     1.488924          3.93
     1.487582          2.01
     1.484554          0.12
     1.484384          0.02
     1.481118          2.10
     1.480895         12.94
     1.479875          2.69
     1.478449          7.57
     1.475874          0.53
     1.474967          0.62
     1.474271         13.76
     1.473922          0.84
     1.472950         10.42
     1.472110          5.46
     1.472028          2.36
     1.472025          0.11
     1.471019          4.93
     1.470612          0.31
     1.468988          1.75
     1.468350          1.22
     1.468296          2.10
     1.467627         11.49
     1.466931          0.87
     1.465615          8.70
     1.465175          6.31
     1.461552          8.86
     1.460882         13.83
     1.460831          1.49
     1.460046          4.29
     1.459722          5.53
     1.458211          1.72
     1.457311          3.04
     1.456675         15.09
     1.456416         15.49
     1.455568         11.92
     1.454036          0.41
     1.450762          1.41
     1.450250          2.73
     1.449738         20.00
     1.448859          0.42
     1.446939          4.14
     1.445679          8.39
     1.445477          2.63
     1.445436          7.83
     1.441091          0.08
     1.441019          0.70
     1.440173          8.18
     1.439805          6.26
     1.439402          0.40
     1.438744          6.87
     1.438542          0.43
     1.438482         11.43
     1.437323          5.59
     1.436659          2.25
     1.435811          0.20
     1.435526          1.66
     1.435268         38.97
     1.433840          0.37
     1.433213          8.54
     1.431086          9.19
     1.429627          0.22
     1.428499          5.25
     1.428346          0.11
     1.425504          0.41
     1.425014          6.21
     1.424177          0.89
     1.423198          0.03
     1.421423          0.97
     1.418188          0.04
     1.417979         21.41
     1.417716         12.62
     1.417242          6.83
     1.415257          1.56
     1.415048          3.61
     1.414734         27.95
     1.414691          4.68
     1.414512          0.40
     1.414507          2.03
     1.413958          4.58
     1.413793          2.00
     1.412079         25.05
     1.411552          0.75
     1.408585          7.75
     1.408397         14.85
     1.408003          6.24
     1.406835          0.94
     1.406662          1.81
     1.406579          0.34
     1.405415          3.01
     1.404915          0.87
     1.404631          0.06
     1.401580          2.22
     1.401282          3.51
     1.401071          1.31
##############################################################################
###                            Comments                                    ###
##############################################################################
###   Diffraction pattern calculated by Match!. 
###   I/Ic calculated by Match!. 
##############################################################################


