##############################################################################
###               Crystal structure data exported by Match!                ###
##############################################################################
###                           Data published by:                           ###
###                                                                        ###
###               COD (Crystallography Open Database)
##############################################################################
data_2300110
_citation_journal_full    'Journal of Applied Crystallography'
_citation_journal_volume  '38(6)'
_citation_page_first  '1028'
_citation_page_last   '1030'
_citation_year  '2005'
_citation_title  'A systematic topological search for the framework of ZSM-10'
loop_
_publ_author_name
  'Foster M. D.'
  'Treacy M. M. J.'
  'Higgins J. B.'
  'Rivin I.'
  'Balkovsky E.'
  'Randall K. H.'
_chemical_formula_sum  'O2 Si'
_chemical_name_common  'Silica'
_symmetry_space_group_name_H-M 'P 6/m m m'
_space_group_IT_number 191
_space_group_crystal_system 'hexagonal'
loop_
_symmetry_equiv_pos_as_xyz
   'x, y, z'
   'x-y, x, z'
   '-y, x-y, z'
   '-x, -y, z'
   '-x+y, -x, z'
   'y, -x+y, z'
   'x-y, -y, -z'
   '-x, -x+y, -z'
   'y, x, -z'
   '-y, -x, -z'
   '-x+y, y, -z'
   'x, x-y, -z'
   '-x, -y, -z'
   '-x+y, -x, -z'
   'y, -x+y, -z'
   'x, y, -z'
   'x-y, x, -z'
   '-y, x-y, -z'
   '-x+y, y, z'
   'x, x-y, z'
   '-y, -x, z'
   'y, x, z'
   'x-y, -y, z'
   '-x, -x+y, z'
_cell_length_a       30.96074
_cell_length_b       30.96074
_cell_length_c        7.51978
_cell_angle_alpha    90.0000
_cell_angle_beta     90.0000
_cell_angle_gamma   120.0000
loop_
_atom_site_label
_atom_site_fract_x
_atom_site_fract_y
_atom_site_fract_z
_atom_site_occupancy
_atom_site_B_iso_or_equiv
si      0.289   0.095   0.297    1.00000    1.000
si      0.388   0.096   0.296    1.00000    1.000
si      0.487   0.194   0.296    1.00000    1.000
si      0.210   0.055   0.000    1.00000    1.000
si      0.427   0.055   0.000    1.00000    1.000
si      0.526   0.154   0.000    1.00000    1.000
o      0.273   0.078   0.500    1.00000    1.000
o      0.306   0.153   0.272    1.00000    1.000
o      0.335   0.089   0.240    1.00000    1.000
o      0.242   0.061   0.174    1.00000    1.000
o      0.387   0.079   0.500    1.00000    1.000
o      0.429   0.153   0.267    1.00000    1.000
o      0.400   0.061   0.175    1.00000    1.000
o      0.503   0.194   0.500    1.00000    1.000
o      0.494   0.247   0.240    1.00000    1.000
o      0.522   0.182   0.175    1.00000    1.000
o      0.162   0.000   0.000    1.00000    1.000
o      0.191   0.095   0.000    1.00000    1.000
o      0.419   0.000   0.000    1.00000    1.000
o      0.485   0.096   0.000    1.00000    1.000
o      0.580   0.160   0.000    1.00000    1.000
_cell_measurement_wavelength    1.541874
_cell_measurement_radiation   'x-rays'
_exptl_crystal_density_diffrn    1.726000
loop_
_pd_peak_d_spacing
_pd_peak_intensity
    26.812792         42.68
    15.480372       1000.00
    13.406396        619.74
    10.134283         99.24
     8.937597        120.73
     7.740186        208.58
     7.519782        102.35
     7.436530          3.66
     7.240424          0.32
     6.763978          3.48
     6.703198         16.98
     6.558509        180.67
     6.151276        291.53
     6.038895        134.11
     5.851031         44.00
     5.754063         16.76
     5.393525         68.13
     5.362558         59.04
     5.287609          0.07
     5.160124         44.71
     5.067141         28.85
     5.003767         53.69
     4.815720          0.27
     4.761220          5.35
     4.617836          7.62
     4.468799          0.01
     4.407996        179.38
     4.366085         99.79
     4.293483        111.51
     4.254726          5.80
     4.202149         13.56
     4.088912          1.17
     4.055394          3.91
     3.870093          0.08
     3.841636          1.12
     3.830399         26.16
     3.802803         53.43
     3.759891         37.26
     3.728542          4.29
     3.723461          0.61
     3.718265          0.72
     3.653668         19.21
     3.620212        126.37
     3.592203          2.58
     3.551441         23.61
     3.525102         92.12
     3.465707          0.15
     3.441110          0.03
     3.433026          5.29
     3.413116         39.64
     3.381989         14.43
     3.378094          0.63
     3.355402          0.04
     3.351599         30.25
     3.333065          2.85
     3.279255         15.66
     3.275704         15.91
     3.211314          3.36
     3.208066          1.49
     3.163105          0.92
     3.138200          1.46
     3.122970          5.60
     3.096074         69.30
     3.081447          4.30
     3.078577         61.63
     3.075638          2.68
     3.061297          1.08
     3.038777          9.33
     3.019447         14.40
     3.016675          5.04
     3.003139         19.37
     2.979199         78.02
     2.963599          1.26
     2.925515          0.44
     2.896122          0.61
     2.877032          0.89
     2.862913          0.71
     2.860611         84.27
     2.846732          1.86
     2.828596          3.00
     2.810744          8.20
     2.799786         16.98
     2.780357          3.32
     2.769749          0.87
     2.767664          2.12
     2.726452          6.68
     2.722427          0.20
     2.696763          0.07
     2.683225         25.87
     2.681279         37.78
     2.643805          2.87
     2.641943          0.06
     2.632836         24.71
     2.607812          1.36
     2.581796          0.75
     2.580062          0.28
     2.568200          0.02
     2.559832          0.03
     2.544958          0.34
     2.535212          5.15
     2.533571          0.31
     2.525536         44.58
     2.512847          2.01
     2.506594         13.30
     2.501884          0.59
     2.495712          0.00
     2.492583          3.41
     2.478843          8.35
     2.474367          0.70
     2.469836          1.58
     2.463898          0.33
     2.440415          1.38
     2.437527          6.54
     2.433270          0.25
     2.430369          6.36
     2.413475          6.33
     2.410644          3.11
     2.409269          0.07
     2.407860         14.71
     2.400960          2.03
     2.390049          0.16
     2.384667          0.03
     2.380610          0.08
     2.379251          0.26
     2.375291          0.23
     2.360735          0.25
     2.354231          1.01
     2.352950          1.41
     2.347814          3.91
     2.335037          0.34
     2.324964          4.76
     2.321269          0.13
     2.318750          2.90
     2.308918          0.51
     2.304065          0.81
     2.293168          1.46
     2.274231          0.85
     2.270773          0.25
     2.268415          1.67
     2.254659          0.05
     2.252351          2.24
     2.251229          1.57
     2.246730          0.11
     2.235525          0.17
     2.234399          4.54
     2.223435          0.00
     2.221221          2.60
     2.211482          7.95
     2.205078          0.01
     2.203998          0.13
     2.186170          0.38
     2.183043         11.40
     2.181994          0.07
     2.178939          0.00
     2.176855          3.81
     2.164690          7.19
     2.161654          0.05
     2.146741          0.23
     2.141847          3.75
     2.139894          0.01
     2.137012          3.87
     2.127363          0.45
     2.121636         10.54
     2.120699          2.78
     2.115025          0.21
     2.107555          0.00
     2.103862          0.01
     2.101075          0.20
     2.100140          0.46
     2.097416         10.07
     2.095557          1.81
     2.078425          1.15
     2.069545          0.09
     2.064271          4.50
     2.062522          0.35
     2.058181          0.40
     2.050425          0.06
     2.047890          5.96
     2.045319          4.01
     2.044456          1.60
     2.027697         12.95
     2.026857          2.88
     2.024407          0.01
     2.022736          4.00
     2.012965          0.02
     2.010523          0.14
     2.007316          0.14
     1.999313          0.05
     1.992979          0.01
     1.990650          3.68
     1.989061          0.47
     1.982059          0.02
     1.978205          0.20
     1.977445          6.16
     1.972843          4.61
     1.958528          0.43
     1.957014          0.09
     1.950344          3.34
     1.948161          0.77
     1.945947          2.18
     1.943039          0.00
     1.935047          0.01
     1.930027          0.05
     1.927912          1.24
     1.926468          0.02
     1.920818          1.29
     1.918021          4.43
     1.916599          0.08
     1.915199          1.86
     1.906200          3.72
     1.903466          0.12
     1.901401          0.08
     1.900708          0.00
     1.891228          5.59
     1.887880          0.43
     1.887219          0.10
     1.879946         27.87
     1.875342          0.03
     1.873995          0.01
     1.870754          0.21
     1.869435          4.99
     1.866234          2.07
     1.864271          0.83
     1.861730          0.93
     1.861713          0.76
     1.859781          4.05
     1.859133          5.68
     1.855951          1.61
     1.848411          0.72
     1.845869          0.23
     1.844018          0.17
     1.842755          0.41
     1.839689          1.89
     1.834112          0.50
     1.833506          1.44
     1.831073         13.87
     1.826834          1.01
     1.822608          0.00
     1.820171          7.65
     1.818396          2.28
     1.811841          3.54
     1.810106          0.52
     1.808314          3.27
     1.804793          0.81
     1.800145          0.51
     1.797857          1.87
     1.797842          0.62
     1.796101          0.11
     1.795517          0.54
     1.793814          4.17
     1.792651          0.05
     1.789828          0.44
     1.787519          0.86
     1.785839          1.05
     1.784133          0.11
     1.781891          1.77
     1.775721          0.16
     1.774087          1.03
     1.771839          4.80
     1.769084          4.58
     1.766371          0.36
     1.762551          0.14
     1.762536         20.70
     1.761433          0.00
     1.760896          0.03
     1.753350          0.01
     1.751236          0.12
     1.747499          3.02
     1.746424          0.68
     1.741678          5.58
     1.739061          0.01
     1.736470          4.67
     1.732854          0.23
     1.731281          2.04
     1.729246          2.03
     1.728190          0.06
     1.727164          0.04
     1.725647          0.52
     1.724612          1.63
     1.722098          7.82
     1.720555          0.00
     1.720041          3.74
     1.718544          0.02
     1.717023          1.88
     1.716513          1.03
     1.708064          0.46
     1.706558          1.72
     1.706057          5.39
     1.704596          2.13
     1.696762          0.32
     1.696282          0.01
     1.690994          0.00
     1.689533          0.06
     1.689047          0.52
     1.687641          0.07
     1.684296          3.51
     1.683333          0.00
     1.677701          0.05
     1.676737          0.18
     1.675799          0.09
     1.673468          0.39
     1.667922          7.00
     1.666532          5.00
     1.666066          2.77
     1.663775          5.74
     1.661517          0.19
     1.658325         15.97
     1.656958          0.01
     1.655162          0.03
     1.648902          0.01
     1.647987          0.10
     1.645781          0.01
     1.642702          0.05
     1.639627          0.20
     1.638295          1.15
     1.637852          0.84
     1.635675          0.10
     1.632213          0.00
     1.630507          0.08
     1.630496          0.26
     1.628761          9.52
     1.627489          0.01
     1.626620          2.82
     1.622784          0.15
     1.620249          0.00
     1.614365          0.33
     1.612714          0.18
     1.611025          0.45
     1.609794          0.99
     1.606911          1.51
     1.605657          0.12
     1.605240          0.03
     1.604033          0.06
     1.602786          0.93
     1.600332          0.90
     1.595491          0.02
     1.593855          0.47
     1.592663          2.87
     1.591849          0.12
     1.589871          4.71
     1.587073          0.80
     1.586268          0.16
     1.584300          0.35
     1.581552          0.14
     1.580357          3.25
     1.577223          0.00
     1.576068          2.70
     1.575279          1.29
     1.571794         16.96
     1.569870          0.06
     1.569490          0.13
     1.569100          0.00
     1.564140          0.01
     1.562638          0.87
     1.561485          0.00
     1.559981          0.01
     1.559216          0.56
     1.557358          0.06
     1.554727          0.02
     1.553601         16.66
     1.548037         10.62
     1.546955          0.03
     1.545464          1.32
     1.543635          1.67
     1.540723          0.00
     1.539288          2.08
     1.539279          0.13
     1.538544          2.39
     1.537819          0.36
     1.536017          0.13
     1.531735          0.02
     1.531725          0.01
     1.530648          1.13
     1.530287          0.03
     1.529232          1.74
     1.525326          0.28
     1.523221         13.47
     1.521825          5.53
     1.519388          0.02
     1.516955          0.14
     1.516242          0.00
     1.515549          0.18
     1.514524          0.35
     1.513824          2.40
     1.512123          0.01
     1.509724          0.95
     1.509715          0.93
     1.508337          0.06
     1.506637          0.00
     1.503956          0.21
     1.501596          0.01
     1.501569          1.71
     1.499551          0.37
     1.497898          4.64
     1.496909          0.53
     1.494883          0.32
     1.494581          4.81
     1.494555          0.01
     1.493236          0.04
     1.489933          1.49
     1.489600          0.21
     1.488635          0.38
     1.487664          4.28
     1.487306          0.97
     1.486337          2.03
     1.485676          0.03
     1.483105          0.01
     1.482751          1.36
     1.481800          2.27
     1.480816          1.29
     1.478881          0.28
     1.476345          1.36
     1.476320          0.00
     1.475057          0.02
     1.474112          0.00
     1.473764          7.03
     1.472822          0.33
     1.470613          0.27
     1.469332          3.70
     1.468398          0.58
     1.467474          0.90
     1.467449          0.09
     1.462758          0.00
     1.461844          0.30
     1.461207          0.71
     1.460925          0.03
     1.460586          0.01
     1.459668          0.10
     1.459042          1.73
     1.456607          0.02
     1.455362          6.13
     1.454740          1.27
     1.454438          0.27
     1.450177          0.44
     1.448980          0.32
     1.448972          3.14
     1.448085          6.56
     1.448061          0.76
     1.447755          0.81
     1.446861          0.74
     1.446251          0.21
     1.443879          0.62
     1.442061          0.21
     1.441790          1.19
     1.438516          0.20
     1.435845          0.00
     1.435577          0.35
     1.435256          0.07
     1.433790          0.01
     1.432345          0.07
     1.431457          1.23
     1.431161          0.44
     1.430306          0.06
     1.430298          0.13
     1.429421          0.42
##############################################################################
###                            Comments                                    ###
##############################################################################
###   Diffraction pattern calculated by Match!. 
###   I/Ic calculated by Match!. 
##############################################################################


