##############################################################################
###               Crystal structure data exported by Match!                ###
##############################################################################
###                           Data published by:                           ###
###                                                                        ###
###               COD (Crystallography Open Database)
##############################################################################
data_4124062
_citation_journal_full    'Journal of the American Chemical Society'
_citation_journal_volume  '126'
_citation_page_first  '9769'
_citation_page_last   '9775'
_citation_year  '2004'
_citation_title  'Chemical evaluation of hypothetical uninodal zeolites'
loop_
_publ_author_name
  'Foster M.D.'
  'Friedrichs O.D.'
  'Bell R.G.'
  'Klinowski J.'
  'Paz F.A.A.'
_chemical_formula_sum  'O2 Si'
_chemical_name_common  'Silica'
_symmetry_space_group_name_H-M 'P 1 c 1'
_space_group_IT_number 7
_space_group_crystal_system 'monoclinic'
loop_
_symmetry_equiv_pos_as_xyz
   'x, y, z'
   'x, -y, z+0.5'
_cell_length_a        8.75906
_cell_length_b        8.41546
_cell_length_c       10.23357
_cell_angle_alpha    90.0000
_cell_angle_beta     90.0000
_cell_angle_gamma    90.0000
_cell_formula_units_Z 16
loop_
_atom_site_label
_atom_site_fract_x
_atom_site_fract_y
_atom_site_fract_z
_atom_site_occupancy
_atom_site_B_iso_or_equiv
o      0.034   0.960   0.719    1.00000    1.000
o      0.770   0.042   0.618    1.00000    1.000
o      0.869   0.250   0.095    1.00000    1.000
o      0.560   0.250   0.668    1.00000    1.000
si      0.591   0.067   0.635    1.00000    1.000
o      0.531   0.041   0.253    1.00000    1.000
si      0.418   0.067   0.373    1.00000    1.000
o      0.006   0.486   0.970    1.00000    1.000
o      0.501   0.513   0.006    1.00000    1.000
o      0.369   0.250   0.379    1.00000    1.000
si      0.918   0.433   0.101    1.00000    1.000
si      0.591   0.566   0.135    1.00000    1.000
o      0.504   0.014   0.504    1.00000    1.000
o      0.770   0.541   0.114    1.00000    1.000
si      0.090   0.934   0.338    1.00000    1.000
si      0.918   0.934   0.600    1.00000    1.000
o      0.270   0.458   0.855    1.00000    1.000
o      0.031   0.459   0.222    1.00000    1.000
o      0.270   0.959   0.359    1.00000    1.000
o      0.001   0.987   0.468    1.00000    1.000
si      0.091   0.433   0.839    1.00000    1.000
o      0.535   0.540   0.755    1.00000    1.000
o      0.060   0.250   0.806    1.00000    1.000
si      0.418   0.566   0.873    1.00000    1.000
_cell_measurement_wavelength    1.541874
_cell_measurement_radiation   'x-rays'
_exptl_crystal_density_diffrn    2.116000
loop_
_pd_peak_d_spacing
_pd_peak_intensity
     8.759060          0.00
     8.415460          0.00
     6.499944          9.21
     6.068465          0.01
     5.219725        559.38
     5.116785         19.92
     4.418160       1000.00
     4.379530        399.73
     4.372058          0.00
     4.207730        702.97
     3.911821          0.00
     3.891611          0.00
     3.884933          0.00
     3.792794          0.00
     3.632022        217.23
     3.556396          0.03
     3.327206         80.28
     3.249972          0.56
     3.161347          9.24
     3.094150          0.01
     3.046991        149.64
     3.034232        100.87
     2.973596        142.94
     2.919687          0.00
     2.909057          0.01
     2.805153          0.00
     2.758389          0.01
     2.705357          0.06
     2.671496          0.01
     2.663335          4.70
     2.649810          0.00
     2.609863         14.00
     2.584870        130.09
     2.563296         51.20
     2.558393         75.96
     2.536290          0.01
     2.535892        172.16
     2.459760          0.00
     2.455780         17.55
     2.447777          0.12
     2.428049          0.31
     2.398770          0.00
     2.368153          0.00
     2.362148          0.00
     2.357453          0.02
     2.335467          0.01
     2.301629         88.71
     2.267132          0.03
     2.209080         30.28
     2.189765         14.67
     2.186029          6.67
     2.171942         14.82
     2.166648          8.89
     2.144882          3.83
     2.144646          0.00
     2.136689          0.00
     2.120972          6.07
     2.119197          0.00
     2.103865         31.27
     2.103257         57.45
     2.075169         25.29
     2.060766          0.00
     2.045682          0.00
     2.022822          0.00
     2.013159         20.89
     2.005995          0.01
     1.988741          6.91
     1.984426         10.65
     1.962189          0.00
     1.957916          0.02
     1.955911         28.34
     1.945805          0.24
     1.942466         13.96
     1.941992         35.49
     1.939381          8.14
     1.924189          5.33
     1.908392          0.00
     1.899500          7.44
     1.896397          7.00
     1.890287          0.03
     1.881156          0.08
     1.875780          0.02
     1.864651          0.00
     1.847748          0.01
     1.840527          0.00
     1.816011          8.67
     1.810788         18.34
     1.801192          0.01
     1.800104         14.49
     1.790679          0.00
     1.778198          2.09
     1.754392          0.01
     1.751812          0.00
     1.749897          6.21
     1.739908          0.10
     1.735527          0.00
     1.726114          0.00
     1.715047          0.01
     1.706890          0.00
     1.705595          1.73
     1.702071         21.83
     1.696777          0.01
     1.691458         13.30
     1.687977          0.00
     1.683631          0.00
     1.683092          0.00
     1.674151         32.46
     1.671608          0.00
     1.663603         32.04
     1.660780          0.12
     1.657483          0.03
     1.657369         16.71
     1.653398         12.46
     1.652854          0.01
     1.643664         18.36
     1.641974          0.03
     1.635557          0.00
     1.632020          0.05
     1.631708         51.85
     1.626133          0.05
     1.624986          1.27
     1.624706          6.78
     1.619175          4.80
     1.617249          0.00
     1.598818          0.00
     1.597724          0.16
     1.597425          0.01
     1.589323         15.89
     1.586761          0.01
     1.580673          0.83
     1.572831          0.00
     1.571068          0.00
     1.561716          0.01
     1.556984          0.00
     1.555547         16.25
     1.552875         33.38
     1.547075         14.15
     1.546835         24.15
     1.542058         15.53
     1.540160         40.91
     1.532283         14.26
     1.526457          0.00
     1.523496         17.89
     1.517116          8.18
     1.509365          0.05
     1.501868          0.00
     1.500715          0.00
     1.487442         34.71
     1.486798          1.63
     1.485869          0.01
     1.472720         13.74
     1.472203          8.13
     1.470450         18.14
     1.467034          0.00
     1.461334          0.00
     1.459843         13.27
     1.458160          0.00
     1.457353          0.00
     1.454528          1.56
     1.450674          0.01
     1.446880          0.00
     1.445432         11.63
     1.443579          3.11
     1.440366          7.43
     1.438724          9.39
     1.438362          0.00
     1.437590          0.01
     1.430895          0.02
     1.426995         19.98
     1.426922          0.02
     1.424572          0.03
     1.424361          2.09
     1.421277          2.58
     1.419886          0.76
     1.408944          0.00
     1.406099          0.00
     1.403826          2.90
     1.402577          9.40
     1.402329          0.01
     1.391064          0.01
     1.390038          8.66
     1.389586          0.00
     1.388324          0.00
     1.386203          0.00
     1.384933          0.00
     1.384692          0.00
     1.382802          0.01
     1.380961          0.01
     1.379195          7.07
     1.372422          0.00
     1.368266          4.66
     1.367023          7.80
     1.366837          0.00
     1.364111          0.00
     1.362245         22.91
     1.352678          1.94
     1.346222          0.00
     1.345587          5.01
     1.340798          0.66
     1.338790          0.00
     1.336831         12.25
     1.335748          1.44
     1.334723          0.01
     1.334454          0.00
     1.331668          1.38
     1.328709          0.01
     1.325357          0.90
     1.324905          0.21
     1.324513          0.00
     1.323251         12.30
     1.319509         17.64
     1.317037          0.00
     1.314545          3.01
     1.310861          0.01
     1.310003          1.86
     1.304931          1.72
     1.303940          0.00
     1.301916          0.02
     1.299989          7.01
     1.297204          0.00
     1.296439          3.53
     1.294978          0.00
     1.292435          4.50
     1.291731          0.21
     1.291263          0.00
     1.285903          2.51
     1.284887          0.01
     1.284732          4.16
     1.283208          0.01
     1.282468         10.97
     1.281648          1.18
     1.279196         11.07
     1.278639          0.00
     1.268922          0.00
     1.268145          0.61
     1.267946         33.26
     1.266843          0.00
     1.265769         19.85
     1.264669          0.00
     1.264265          0.00
     1.255396          0.00
     1.254726          0.00
     1.253795          0.00
     1.252233          0.01
     1.251690          0.02
     1.251294          0.00
     1.248365          0.00
     1.246245         14.82
     1.243790          0.01
     1.243116          7.62
     1.242745         19.06
     1.237687          0.01
     1.229880         16.94
     1.228733          0.69
     1.227890          2.89
     1.227355         27.94
     1.223888         12.31
     1.222050          3.76
     1.218796          0.01
     1.217933          7.92
     1.215477          9.80
     1.215025          0.04
     1.214024         37.25
     1.213693          0.00
     1.213227          0.01
     1.212113         13.22
     1.210674          2.48
     1.209366          0.02
     1.206495          0.60
     1.205246         10.78
     1.203374          1.30
     1.202994          0.03
     1.202416          8.94
     1.202209          0.00
     1.200546          0.01
     1.199385          1.56
     1.199384          0.00
     1.198003          0.00
     1.193998          0.04
     1.191354          0.76
     1.191231          0.00
     1.191230          0.00
     1.191042          0.00
     1.189426          0.00
     1.187590         14.80
     1.186952          0.00
     1.185465          0.00
     1.184882          0.94
     1.184077          7.94
     1.183175          0.00
     1.183056          1.52
     1.181074          7.70
     1.180926          0.01
     1.178727          3.34
     1.176820          0.91
     1.173558          9.72
     1.173286          0.00
     1.171675          0.60
##############################################################################
###                            Comments                                    ###
##############################################################################
###   Diffraction pattern calculated by Match!. 
###   I/Ic calculated by Match!. 
###   Space group has been derived from given symmetry operations. 
##############################################################################


