##############################################################################
###               Crystal structure data exported by Match!                ###
##############################################################################
###                           Data published by:                           ###
###                                                                        ###
###               COD (Crystallography Open Database)
##############################################################################
data_9013895
_citation_journal_full    'Acta Crystallographica, Section C'
_citation_journal_volume  '40'
_citation_page_first  '1309'
_citation_page_last   '1311'
_citation_year  '1984'
_citation_title  'Structure of langite, Cu4[(OH)6|SO4]*2H2O Locality: Allihies mine, County Cork, Ireland'
loop_
_publ_author_name
  'Gentsch M.'
  'Weber K.'
_chemical_formula_sum  'Cu4 H10 O12 S'
_chemical_name_mineral  'Langite'
_symmetry_space_group_name_H-M 'P 1 c 1'
_space_group_IT_number 7
_space_group_crystal_system 'monoclinic'
loop_
_symmetry_equiv_pos_as_xyz
   'x, y, z'
   'x, -y, z+0.5'
_cell_length_a        7.13700
_cell_length_b        6.03100
_cell_length_c       11.21700
_cell_angle_alpha    90.0000
_cell_angle_beta     90.0000
_cell_angle_gamma    90.0000
loop_
_atom_site_label
_atom_site_fract_x
_atom_site_fract_y
_atom_site_fract_z
_atom_site_occupancy
_atom_site_B_iso_or_equiv
cu      0.000   -0.003   0.500    1.00000    0.799
cu      0.007   0.508   0.498    1.00000    0.799
cu      -0.003   0.245   0.247    1.00000    0.799
cu      -0.009   0.746   0.248    1.00000    0.799
s      0.423   0.182   0.083    1.00000    1.098
o      0.480   0.048   0.186    1.00000    2.100
o      0.217   0.230   0.092    1.00000    1.098
o      0.524   0.394   0.079    1.00000    1.999
o      0.460   0.940   0.472    1.00000    2.197
o      0.139   0.744   0.056    1.00000    0.900
o      0.883   0.510   0.660    1.00000    0.900
o      0.859   0.246   0.943    1.00000    0.799
o      0.112   0.002   0.340    1.00000    0.900
o      0.875   0.006   0.663    1.00000    0.900
o      0.111   0.504   0.837    1.00000    0.900
o      0.739   0.262   0.402    1.00000    1.699
o      0.483   0.580   0.303    1.00000    2.399
h      0.279   0.744   0.060    1.00000    1.000
h      0.263   0.358   0.133    1.00000    1.000
h      0.719   0.246   0.943    1.00000    1.000
h      0.228   0.981   0.383    1.00000    1.000
h      0.743   0.012   0.171    1.00000    1.000
h      0.235   0.524   0.326    1.00000    1.000
h      0.652   0.368   0.369    1.00000    1.000
h      0.645   0.154   0.426    1.00000    1.000
h      0.482   0.734   0.264    1.00000    1.000
h      0.496   0.518   0.229    1.00000    1.000
_cell_measurement_wavelength    1.541874
_cell_measurement_radiation   'x-rays'
_exptl_crystal_density_diffrn    3.358000
loop_
_pd_peak_d_spacing
_pd_peak_intensity
     7.137000       1000.00
     6.031000          3.90
     5.608500         22.18
     5.311884         62.51
     4.606528          3.44
     4.409809         21.97
     4.261190         39.30
     4.107058          7.32
     3.568500        335.11
     3.559726          7.40
     3.177838          9.88
     3.071162          3.95
     3.015500          0.68
     3.010739         18.61
     2.962141         33.51
     2.912105          4.56
     2.903063         28.13
     2.804250         71.82
     2.777735          0.37
     2.696292          6.40
     2.693737          4.54
     2.655942        106.23
     2.610007        203.74
     2.542812          3.72
     2.489171        347.85
     2.395322          7.00
     2.379000         24.21
     2.373217          1.89
     2.347250          0.51
     2.303264          7.85
     2.256191          4.83
     2.229755          1.52
     2.213047          0.68
     2.204905        151.15
     2.190115          5.94
     2.171194          3.40
     2.130595        242.14
     2.102642          0.51
     2.070849          2.63
     2.058582          1.38
     2.053529          0.74
     2.016933          5.87
     2.010333          0.06
     1.978804          1.64
     1.973463          7.90
     1.961046          1.79
     1.935033          0.56
     1.906868          0.61
     1.904459          0.72
     1.892434          0.46
     1.869500          0.02
     1.867735          1.08
     1.842370          2.47
     1.829221          1.06
     1.814125         71.64
     1.811557          0.72
     1.808485          2.66
     1.799928          0.33
     1.785676          0.20
     1.784250         26.02
     1.779863          2.21
     1.772057        155.06
     1.770628          0.02
     1.751517          0.18
     1.745281          0.67
     1.737234          2.42
     1.732279          0.42
     1.730547          2.76
     1.718531          1.60
     1.710945          1.05
     1.700282          1.01
     1.691382          0.94
     1.671884          0.55
     1.670869          0.89
     1.656008          1.50
     1.636490          1.50
     1.633862          0.74
     1.607070          0.34
     1.596902          0.29
     1.592661          1.56
     1.588919         82.02
     1.586112          0.91
     1.575482          0.98
     1.555795          3.24
     1.554501          2.31
     1.550948         80.50
     1.548695          2.28
     1.535581          1.51
     1.535509          0.33
     1.521391          1.79
     1.521321          0.89
     1.513473          0.89
     1.507750         27.57
     1.505369         35.51
     1.497161          0.58
     1.494311          0.87
     1.485555          1.04
     1.481070         70.85
     1.481006          0.75
     1.475190         44.47
     1.469936          0.38
     1.465269          0.98
     1.462596          0.49
     1.460558          0.63
     1.456052          0.01
     1.451532         53.94
     1.435389          0.61
     1.428130          0.31
     1.427400          7.79
     1.426665          0.12
     1.420673          1.20
     1.420453          1.14
     1.420397          0.70
     1.415043          0.10
     1.402125          6.40
     1.398338          0.43
     1.389026          0.16
     1.388868         16.84
     1.388025          0.20
     1.383302          1.43
     1.380578          0.77
     1.378497          2.49
     1.378342          0.32
     1.375826         24.57
     1.372248          2.61
     1.369019          0.45
     1.365703          0.04
     1.360446          0.72
     1.348291          0.22
     1.348146          0.76
     1.346868          2.17
     1.346820          0.61
     1.344507          0.52
     1.341365          0.27
     1.334459          0.18
     1.327971         14.07
     1.325115          0.85
     1.321312         23.11
     1.315400          0.29
     1.305563         29.02
     1.305003         14.35
     1.302079          0.36
     1.301949          0.39
     1.298217          0.55
     1.297909          0.64
     1.290741          1.10
     1.290160          1.59
     1.281710          0.53
     1.278185          0.61
     1.275485          0.13
     1.273522         10.29
     1.272086         15.95
     1.271406          0.10
     1.267162          0.31
     1.267122          0.33
     1.265392          0.31
     1.262159          0.18
     1.257322         33.43
     1.256812          0.87
     1.253060          0.18
     1.251700          0.18
     1.251387          0.60
     1.244700          0.57
     1.244586         32.95
     1.241907          0.89
     1.234182          0.40
     1.232584          0.97
     1.220543          0.50
     1.219597          0.42
     1.216168          0.27
     1.207937         17.80
     1.206200          0.19
     1.205513          0.89
     1.204980          0.73
     1.203077          0.83
     1.199286          0.09
     1.197661          1.43
     1.189500          4.63
     1.189334          0.20
     1.186608         17.10
     1.186575          0.16
     1.184414          0.22
     1.182704          0.23
     1.182288          0.49
     1.180981          0.68
     1.180883          0.58
     1.179236          0.23
     1.173625          0.15
     1.172066          1.33
     1.169571          0.15
     1.167018          0.18
     1.163860          0.35
     1.163617          0.58
     1.163462          0.23
     1.160753          0.47
     1.159549         22.98
     1.158072          0.13
     1.157646          0.50
     1.154860          0.39
     1.151830          0.11
     1.151632          6.50
     1.150037          0.18
     1.147945          0.14
     1.146893          0.38
     1.145610          0.13
     1.142687          0.20
     1.142546          0.29
     1.139582          0.48
     1.137116          0.49
     1.136804          0.31
     1.135391          0.10
     1.134515          1.06
     1.133377          0.27
     1.128095          0.31
     1.121700          0.12
     1.121319          0.72
     1.119684          0.14
     1.118404          0.38
     1.114959          0.23
     1.114877          0.50
     1.114016          0.64
     1.111268          0.33
     1.108699          0.22
     1.108672          0.21
     1.108098          0.97
     1.108045          0.27
     1.107513          0.45
     1.106524          0.14
     1.102788          0.04
     1.102452         10.09
     1.101179          0.34
     1.100609          0.40
     1.098087          0.30
     1.096144          0.20
     1.095058         11.18
     1.094928          0.50
     1.094598          0.16
     1.092793          0.27
     1.089855          0.18
     1.086141          0.48
     1.085960          0.14
     1.085597         17.57
     1.085316          0.49
     1.084482          0.18
     1.077441          0.26
     1.075820          0.03
     1.074955          0.27
     1.070906          0.21
     1.070080          0.25
     1.065298         16.95
     1.062377          0.59
     1.061851         12.35
     1.061035          0.36
     1.059279          0.02
     1.058206          0.22
     1.056558          0.09
     1.053624          0.11
     1.052516          0.34
     1.051321          5.85
     1.050799          0.02
     1.049589          0.48
     1.049521          0.33
     1.047801          0.20
     1.040097         13.70
     1.036711          0.29
     1.036566          5.05
     1.035424          0.38
     1.035403          0.15
     1.035313          0.41
     1.033875          0.35
     1.033106          0.60
     1.032168          0.48
     1.029291          0.51
     1.026764          5.65
     1.025442          0.02
     1.024525          0.47
     1.023721          0.19
     1.019571          4.64
     1.019484          0.30
     1.019303          0.44
     1.018212          0.63
     1.016301         11.16
     1.015484          0.18
     1.014578          0.34
     1.013548          0.11
     1.008466         14.71
     1.007392          0.43
     1.007081          0.36
##############################################################################
###                            Comments                                    ###
##############################################################################
###   Diffraction pattern calculated by Match!. 
###   I/Ic calculated by Match!. 
##############################################################################


