##############################################################################
###               Crystal structure data exported by Match!                ###
##############################################################################
###                           Data published by:                           ###
###                                                                        ###
###               COD (Crystallography Open Database)
##############################################################################
data_9009511
_citation_journal_full    'Mineralogical Magazine'
_citation_journal_volume  '62'
_citation_page_first  '121'
_citation_page_last   '130'
_citation_year  '1998'
_citation_title  'The crystal chemistry of duftite, PbCuAsO4(OH) and the beta-duftite problem Note: sample is synthetic'
loop_
_publ_author_name
  'Kharisun'
  'Taylor M. R.'
  'Bevan D. J. M.'
  'Pring A.'
_chemical_formula_sum  'As Cu H O5 Pb'
_chemical_name_mineral  'Duftite'
_symmetry_space_group_name_H-M 'P 21 21 21'
_space_group_IT_number 19
_space_group_crystal_system 'orthorhombic'
loop_
_symmetry_equiv_pos_as_xyz
   'x, y, z'
   '-x+0.5, -y, z+0.5'
   'x+0.5, -y+0.5, -z'
   '-x, y+0.5, -z+0.5'
_cell_length_a        7.76800
_cell_length_b        9.21100
_cell_length_c        5.99900
_cell_angle_alpha    90.0000
_cell_angle_beta     90.0000
_cell_angle_gamma    90.0000
loop_
_atom_site_label
_atom_site_fract_x
_atom_site_fract_y
_atom_site_fract_z
_atom_site_occupancy
_atom_site_B_iso_or_equiv
pb      0.376   0.167   0.479    1.00000    1.000
cu      0.256   0.496   0.754    1.00000    1.000
as      0.369   -0.193   0.508    1.00000    1.000
o      0.142   0.285   0.765    1.00000    1.342
o      0.126   0.305   0.241    1.00000    0.947
o      0.541   -0.085   0.494    1.00000    0.947
o      0.197   -0.085   0.538    1.00000    1.578
o      0.385   0.438   0.497    1.00000    0.631
_cell_measurement_wavelength    1.541874
_cell_measurement_radiation   'x-rays'
_exptl_crystal_density_diffrn    6.602000
loop_
_pd_peak_d_spacing
_pd_peak_intensity
     5.938218          8.00
     5.026866        266.69
     4.747967          6.88
     4.605500        124.81
     4.220280        386.82
     3.961572        144.78
     3.884000         52.99
     3.653111         12.86
     3.578842        118.87
     3.305799        122.00
     3.260322       1000.00
     3.073468         11.06
     2.999500        247.26
     2.969109         36.47
     2.855382        548.32
     2.852087          1.77
     2.798143          6.80
     2.733160          3.49
     2.677331        410.34
     2.661022        368.11
     2.578226        502.57
     2.513433        183.09
     2.492713         92.11
     2.408640         44.74
     2.391369         38.73
     2.377334          0.96
     2.373984         29.12
     2.302750          1.55
     2.301901         40.59
     2.298858        197.35
     2.257064         54.53
     2.235202          4.72
     2.207786         54.96
     2.149808          0.81
     2.145572          9.29
     2.112492         81.56
     2.110140         52.16
     2.071926         53.48
     2.068133        134.71
     1.980786         15.77
     1.979406         38.47
     1.960037          3.30
     1.954147         24.38
     1.942000         83.28
     1.936532          9.10
     1.917113          5.92
     1.900225          1.55
     1.895102         56.77
     1.880907         32.57
     1.879725        186.71
     1.878067         10.49
     1.847602          0.00
     1.834231         14.95
     1.826555         72.96
     1.811518         58.52
     1.803502         29.01
     1.792484          2.81
     1.789421        124.62
     1.785140         18.63
     1.778062         23.63
     1.777873        139.39
     1.761037         50.91
     1.745653          4.08
     1.720727          9.99
     1.717456         53.88
     1.714761          1.48
     1.675622          0.77
     1.664466         34.61
     1.658581         65.77
     1.654029         21.51
     1.652900         22.92
     1.652098        225.17
     1.641253          0.11
     1.637948        108.51
     1.630161        152.29
     1.605216          2.67
     1.603875          0.69
     1.583075          9.88
     1.582656          4.42
     1.569776          0.55
     1.559798         17.12
     1.538673        104.87
     1.538550         12.09
     1.536734         10.88
     1.535167         47.50
     1.531962         29.29
     1.509844          7.94
     1.506038          1.31
     1.503983          0.48
     1.501065         39.97
     1.499750         78.07
     1.496745         19.11
     1.492565          3.87
     1.487242          0.17
     1.484554         21.23
     1.484327         16.18
     1.482107         13.13
     1.480257          2.11
     1.472556          2.10
     1.472097          9.65
     1.460711          5.23
     1.456172         43.37
     1.455401         36.96
     1.454092         10.12
     1.441084          1.70
     1.439806          3.72
     1.429681          7.64
     1.427691          3.97
     1.426043          6.31
     1.407255         11.17
     1.406760         62.36
     1.402605         11.01
     1.399071          3.27
     1.393142          0.01
     1.388900        103.21
     1.386237         11.84
     1.383206          9.21
     1.379534          0.67
     1.377476         19.64
     1.366580         15.98
     1.364317          4.76
     1.354886         16.11
     1.350646         55.08
     1.347577          5.34
     1.345911          8.22
     1.342358         12.12
     1.338666         16.90
     1.336522          0.02
     1.334735         21.01
     1.333469          9.11
     1.330511          1.31
     1.327746         72.54
     1.321521          9.37
     1.320524          1.04
     1.304538         28.43
     1.304303          7.90
     1.297779          3.71
     1.297375          0.04
     1.294667          0.71
     1.289649          2.63
     1.289113          4.29
     1.287895          8.67
     1.285301         11.42
     1.285087         24.12
     1.282064          4.42
     1.279283          0.51
     1.273126          5.81
     1.268653          2.99
     1.268060          2.57
     1.265531         56.72
     1.259204          6.63
     1.258351         81.53
     1.256717          0.17
     1.253752          1.06
     1.249133          8.60
     1.246357          3.19
     1.246277          6.88
     1.240586         10.86
     1.226842          0.84
     1.220813          0.54
     1.220298         20.31
     1.220223          0.58
     1.217704          0.00
     1.216102          9.53
     1.208585          5.69
     1.205004          0.52
     1.204320         17.44
     1.203012          5.94
     1.200473         22.26
     1.195685         15.28
     1.195381         10.31
     1.192947          0.59
     1.191977          5.78
     1.190762          8.47
     1.189749          1.97
     1.188667          1.69
     1.187644         12.79
     1.186992         21.43
     1.185740          2.93
     1.185500          4.58
     1.183420          8.66
     1.180761          0.03
     1.178891         12.89
     1.177257          2.01
     1.176035         12.60
     1.173073          8.25
     1.170037          1.49
     1.165032         11.40
     1.163061          1.11
     1.161936         46.77
     1.161048          6.76
     1.151375          4.58
     1.151269          3.55
     1.150950          4.96
     1.150888         12.37
     1.150240          5.05
     1.149429         38.73
     1.148292          4.29
     1.146351         25.23
     1.139259         26.76
     1.138932          7.83
     1.137575          3.47
     1.130737          0.26
     1.130591          3.98
     1.128532          0.95
     1.118945         15.98
     1.117601         66.07
     1.117507          0.47
     1.114179         12.48
     1.112409         14.53
     1.111178         14.18
     1.109078          7.58
     1.108495          0.20
     1.107136          6.93
     1.106120         18.84
     1.104236          5.14
     1.103893          1.18
     1.101933          3.95
     1.101747          0.19
     1.099217          5.68
     1.092496          1.09
     1.091986          0.32
     1.091202          0.31
     1.089342          0.08
     1.088613          1.89
     1.088374          3.05
     1.086774         28.25
     1.085665         22.88
     1.083624          5.93
     1.082760          3.70
     1.081089          8.35
     1.079288          1.70
     1.079019          1.36
     1.078838          2.22
     1.074904         19.04
     1.074332          2.38
     1.073939          8.29
     1.072786         22.16
     1.071815          9.98
     1.071690         17.08
     1.064759         15.54
     1.064034          4.20
     1.062700          3.99
     1.061805          6.55
     1.060948         21.38
     1.059419          4.91
     1.059246          9.04
     1.057724         11.22
     1.057675          0.95
     1.056246          3.98
     1.055070         10.35
     1.054190          3.90
     1.052055          4.17
     1.050570          4.94
     1.043639         18.28
     1.043110          0.04
     1.040770          0.56
     1.036241         10.51
     1.035963          3.33
     1.034189         13.04
     1.034066          2.51
     1.031666          0.19
     1.028196         22.61
     1.026222          2.65
     1.026103          1.98
     1.026030         15.37
     1.024489          1.73
     1.023909          0.87
     1.021124          9.05
     1.020710          0.02
     1.017985          6.84
     1.015171          2.16
     1.014676         12.43
     1.014500          3.77
     1.011819          2.14
     1.008868          2.13
##############################################################################
###                            Comments                                    ###
##############################################################################
###   Diffraction pattern calculated by Match!. 
###   I/Ic calculated by Match!. 
##############################################################################


