##############################################################################
###               Crystal structure data exported by Match!                ###
##############################################################################
###                           Data published by:                           ###
###                                                                        ###
###               COD (Crystallography Open Database)
##############################################################################
data_9000803
_citation_journal_full    'American Mineralogist'
_citation_journal_volume  '66'
_citation_page_first  '324'
_citation_page_last   '333'
_citation_year  '1981'
_citation_title  'High-pressure crystal structure and compressibility of coesiteP = 1 atm anisotropic refinement'
loop_
_publ_author_name
  'Levien L.'
  'Prewitt C. T.'
_chemical_formula_sum  'O2 Si'
_chemical_name_mineral  'Coesite'
_symmetry_space_group_name_H-M 'C 1 2/c 1'
_space_group_IT_number 15
_space_group_crystal_system 'monoclinic'
loop_
_symmetry_equiv_pos_as_xyz
   'x, y, z'
   'x+0.5, y+0.5, z'
   '-x, y, -z+0.5'
   '-x+0.5, y+0.5, -z+0.5'
   '-x, -y, -z'
   '-x+0.5, -y+0.5, -z'
   'x, -y, z+0.5'
   'x+0.5, -y+0.5, z+0.5'
_cell_length_a        7.13560
_cell_length_b       12.36920
_cell_length_c        7.17360
_cell_angle_alpha    90.0000
_cell_angle_beta    120.3400
_cell_angle_gamma    90.0000
loop_
_atom_site_label
_atom_site_fract_x
_atom_site_fract_y
_atom_site_fract_z
_atom_site_occupancy
_atom_site_B_iso_or_equiv
si      0.140   0.108   0.072    1.00000    0.427
si      0.507   0.158   0.541    1.00000    0.440
o      0.000   0.000   0.000    1.00000    0.669
o      0.500   0.116   0.750    1.00000    0.759
o      0.266   0.123   0.940    1.00000    0.860
o      0.311   0.104   0.328    1.00000    0.771
o      0.018   0.212   0.478    1.00000    0.772
_cell_measurement_wavelength    1.541874
_cell_measurement_radiation   'x-rays'
_cell_measurement_pressure       100.000000
_exptl_crystal_density_diffrn    2.921000
loop_
_pd_peak_d_spacing
_pd_peak_intensity
     6.184600         57.07
     5.547358         10.27
     5.512854          5.47
     4.375478         49.81
     3.444874         63.14
     3.434330        138.88
     3.426095        400.95
     3.420122        697.11
     3.103271        997.24
     3.095563        852.13
     3.092300       1000.00
     3.090334        846.52
     3.079165        169.94
     2.773679         20.92
     2.768171         75.48
     2.766420         62.56
     2.756427        143.05
     2.706117         91.74
     2.694069        309.12
     2.336710         87.02
     2.305011         36.58
     2.298883          8.00
     2.298022          2.76
     2.295550         27.50
     2.292619         64.17
     2.291483         42.25
     2.195630         20.81
     2.190455         36.37
     2.187739         23.89
     2.181928         59.62
     2.178555          1.59
     2.061533          0.14
     2.040502          4.79
     2.039104         21.55
     2.036445          0.81
     2.034858         27.80
     2.031295         89.85
     2.030509          7.99
     2.029720          0.34
     2.025079         27.72
     1.957599          2.13
     1.955948          0.63
     1.870327          8.47
     1.859739         16.59
     1.849119         75.90
     1.837618         99.24
     1.793393        177.81
     1.784962        110.05
     1.783828          1.72
     1.779436          0.19
     1.722437          0.78
     1.717165          9.88
     1.716552         32.24
     1.715856         45.35
     1.713958         33.26
     1.713048        116.20
     1.710061         32.25
     1.706707          7.98
     1.704139          6.94
     1.702314          8.52
     1.699841          0.66
     1.699493         20.12
     1.698492         64.08
     1.697304          2.38
     1.697115        126.41
     1.696843          3.13
     1.691693          7.21
     1.655518        170.77
     1.648161          6.64
     1.589917          3.91
     1.587841         12.78
     1.587023          1.12
     1.585111         37.60
     1.582679         41.24
     1.582154         52.17
     1.579733         36.14
     1.577759          8.44
     1.551635         44.66
     1.551371         41.66
     1.549338          0.55
     1.547782         19.05
     1.546150         46.27
     1.545167         36.04
     1.543303          4.48
     1.542310         79.20
     1.539583         35.62
     1.504993          0.87
     1.501939          5.59
     1.501475          5.46
     1.500079         26.72
     1.496439          0.45
     1.493987         16.22
     1.458493          1.02
     1.418655         20.38
     1.416173         10.60
     1.413970          0.58
     1.412509          0.26
     1.411469         12.05
     1.410058          8.05
     1.409884         14.34
     1.408609         13.49
     1.408501         25.14
     1.408346          1.12
     1.407034         18.45
     1.405397          2.12
     1.404159         32.97
     1.388256          0.01
     1.386839          3.61
     1.384086          1.04
     1.383896          1.20
     1.383210          4.41
     1.381738          6.67
     1.379603          3.10
     1.378213          0.00
     1.353059          0.83
     1.348937         84.96
     1.347290         15.98
     1.347034         61.86
     1.345166        112.41
     1.344478         33.80
     1.343638         45.04
     1.341872          1.29
     1.341851          0.15
     1.341358         67.03
     1.340719         13.86
     1.339414         46.53
     1.339206         26.51
     1.337101          4.85
     1.336933         37.92
     1.324167         76.64
     1.319887         60.77
     1.316150          9.08
     1.312943         51.21
     1.293903          7.88
     1.291426         18.66
     1.287925         10.20
     1.286889          3.74
     1.285717         41.26
     1.285116         45.99
     1.283368         84.11
     1.282077          3.31
     1.281832         13.12
     1.278669          0.11
     1.241545          0.04
     1.239723          5.65
     1.237755         12.37
     1.237389         44.50
     1.236920          8.98
     1.235149          5.80
     1.235105         17.90
     1.233686          1.57
     1.233550         41.50
     1.232715         14.28
     1.232278          0.02
     1.230970          1.69
     1.230049          7.70
     1.229071         14.17
     1.227980          0.15
     1.227153         40.46
     1.225605         19.24
     1.214130         12.30
     1.212949          0.38
     1.190049         35.38
     1.188609          1.88
     1.187189         26.37
     1.186715         31.17
     1.185863          0.29
     1.185026         33.74
     1.184165         46.41
     1.184128         31.44
     1.184009          0.87
     1.181634          0.02
     1.180872          0.72
     1.180135         31.80
     1.174309          2.91
     1.173054          6.94
     1.171996          0.01
     1.171030         11.23
     1.169823          0.12
     1.168673          1.89
     1.168355          8.14
     1.167825         20.88
     1.167118         18.53
     1.166776          0.00
     1.166522          2.02
     1.165923          5.66
     1.163877         17.04
     1.153696          0.16
     1.152506          0.01
     1.149496          5.40
     1.149442          3.25
     1.149327          0.08
     1.149011          2.69
     1.148618          0.03
     1.148291          4.82
     1.147775          8.53
     1.146857          1.13
     1.146309          2.03
     1.145741          2.96
     1.144777          0.69
     1.143800          2.63
     1.142032          6.76
     1.140041         15.75
     1.132663         37.63
     1.125614         10.75
     1.111094          0.62
     1.109967          4.04
     1.109504         21.18
     1.109472          7.86
     1.108970          0.60
     1.106472          2.46
     1.106460          3.94
     1.106184          1.04
     1.105921         12.38
     1.105092         13.80
     1.103698          8.70
     1.102571         16.26
     1.101427          0.33
     1.097815          0.01
     1.096789          0.68
     1.095863         13.35
     1.095227          0.36
     1.094418          8.01
     1.094147          3.95
     1.093870          0.00
     1.092285          2.11
     1.091445          3.49
     1.090964          0.23
     1.090954          0.20
     1.089475         19.94
     1.089278          1.05
     1.076880          3.20
     1.076469         20.51
     1.074946          1.66
     1.074466         24.19
     1.074351         10.56
     1.074000          8.22
     1.073825         21.91
     1.072979          2.39
     1.072224          8.35
     1.072169          0.00
     1.072081          1.62
     1.072061          0.08
     1.070690          0.12
     1.070229          1.17
     1.069663          0.89
     1.068072          3.08
     1.061473          4.04
     1.060946          6.25
     1.047688         25.44
     1.047634          0.09
     1.043954          5.71
     1.042049          0.51
     1.034424          0.05
     1.031854          1.37
     1.030767          0.11
     1.030111          6.31
     1.026388         22.86
     1.020376          0.04
     1.020251          0.06
     1.019552          0.13
     1.019306          3.30
     1.018222          4.75
     1.017786          0.30
     1.017565         16.94
     1.017429         24.94
     1.016977          2.83
     1.016771          5.64
     1.016462         24.95
     1.015733          8.24
     1.015648         15.83
     1.015348          7.03
     1.015255          6.70
     1.014860         16.07
     1.014159          2.05
     1.014018          3.36
     1.013510          7.50
     1.013494          0.40
     1.013226          0.54
     1.013007          8.07
     1.012956          0.03
     1.012858          0.43
     1.012539          0.71
     1.011744          8.94
     1.010544          2.58
     1.010430         10.63
     1.009549          2.64
     1.007853          7.21
##############################################################################
###                            Comments                                    ###
##############################################################################
###   Diffraction pattern calculated by Match!. 
###   I/Ic calculated by Match!. 
###   Space group has been derived from given symmetry operations. 
##############################################################################


