##############################################################################
###               Crystal structure data exported by Match!                ###
##############################################################################
###                           Data published by:                           ###
###                                                                        ###
###               COD (Crystallography Open Database)
##############################################################################
data_2006658
_citation_journal_full    'Acta Crystallographica Section C'
_citation_journal_volume  '53(11)'
_citation_page_first  '1523'
_citation_page_last   '1525'
_citation_year  '1997'
_citation_title  'Structure d'un Diphosphate Synth\'etique de Cobalt: Co~2~P~2~O~7~'
loop_
_publ_author_name
  'Kobashi Dilshat'
  'Kohara Shizuo'
  'Yamakawa Junji'
  'Kawahara Akira'
_chemical_formula_sum  'Co2 O7 P2'
_chemical_name_common  'Diphosphate synth\'
_symmetry_space_group_name_H-M 'P 1 21/a 1'
_space_group_IT_number 14
_space_group_crystal_system 'monoclinic'
loop_
_symmetry_equiv_pos_as_xyz
   'x, y, z'
   '-x+0.5, y+0.5, -z'
   '-x, -y, -z'
   'x+0.5, -y+0.5, z'
_cell_length_a        5.33900
_cell_length_b        9.92300
_cell_length_c        4.48800
_cell_angle_alpha    90.0000
_cell_angle_beta     97.4500
_cell_angle_gamma    90.0000
_cell_formula_units_Z 2
loop_
_atom_site_label
_atom_site_fract_x
_atom_site_fract_y
_atom_site_fract_z
_atom_site_occupancy
_atom_site_B_iso_or_equiv
co      0.090   0.158   0.393    1.00000    0.473
p      0.654   0.110   0.856    1.00000    0.394
o      0.760   0.202   0.113    1.00000    0.631
o      0.862   0.039   0.710    1.00000    0.789
o      0.468   0.181   0.622    1.00000    0.631
o      0.500   0.000   0.000    1.00000    1.578
_cell_measurement_wavelength    1.541874
_cell_measurement_radiation   'x-rays'
_cell_measurement_temperature    293.000000
_exptl_crystal_density_diffrn    4.110000
_exptl_crystal_colour            'violet'
loop_
_pd_peak_d_spacing
_pd_peak_intensity
     4.961500         87.93
     4.670790         35.31
     4.450114         88.68
     4.060484         35.55
     3.620131         16.68
     3.423415          0.42
     3.312797         94.75
     3.052230        629.28
     2.938721       1000.00
     2.805143         77.30
     2.693781          0.06
     2.654676         69.23
     2.646965         15.93
     2.557537        210.15
     2.480750         88.84
     2.450184         11.86
     2.416791          3.82
     2.348149         29.42
     2.335395          0.76
     2.302734         67.42
     2.246344         49.15
     2.225057          0.29
     2.172731         28.16
     2.171144         65.85
     2.166814         33.02
     2.155466        113.93
     2.106346         17.45
     2.104416          8.43
     2.066679         27.15
     2.051254        166.07
     2.030242          6.67
     1.976962         46.08
     1.975367        100.45
     1.962377          2.53
     1.951394          3.50
     1.925083          0.10
     1.858311          4.88
     1.846205         49.91
     1.824817         13.12
     1.823675         80.53
     1.812525         33.21
     1.810066          2.38
     1.805868         21.32
     1.804651          0.03
     1.793636         15.11
     1.743248          7.76
     1.737385          0.71
     1.731099         16.68
     1.711708         11.29
     1.693303         45.11
     1.687706         10.16
     1.687699         46.88
     1.662614         64.33
     1.656399          0.09
     1.653833         37.61
     1.627081          7.96
     1.626191         45.78
     1.623859         14.02
     1.603873         95.31
     1.597023          0.33
     1.587860         79.87
     1.583325          0.94
     1.578595          2.09
     1.556930          1.12
     1.552660          3.23
     1.550239         41.71
     1.539056         56.16
     1.533746         32.67
     1.526115          0.92
     1.524969         49.48
     1.506224         19.01
     1.498599         47.89
     1.483371          1.39
     1.481068         51.53
     1.469962          1.57
     1.469360         39.80
     1.467070         19.99
     1.462969          7.76
     1.462890         12.31
     1.459998          6.80
     1.459355         30.51
     1.443161          1.71
     1.437954         53.04
     1.421212          0.05
     1.419826          1.60
     1.417483         26.74
     1.417411          4.97
     1.412660         10.27
     1.402572         17.39
     1.395397         10.26
     1.372123         21.94
     1.369329          8.98
     1.369317          0.44
     1.364858          6.74
     1.359191          0.24
     1.353495          0.00
     1.350698          7.77
     1.350273         15.13
     1.350210         21.93
     1.346890         29.81
     1.342826          1.30
     1.331805         73.76
     1.327862          6.04
     1.327338          3.73
     1.323483          8.28
     1.322482         11.68
     1.321286          1.81
     1.318728         18.67
     1.316051         21.99
     1.312108         33.18
     1.311866          3.51
     1.311641          0.03
     1.304627          5.43
     1.299137          0.40
     1.296604         29.10
     1.291728          2.72
     1.278768          0.52
     1.275598          0.21
     1.273129          1.44
     1.272061          5.00
     1.270446          0.01
     1.270394          2.93
     1.267400         10.19
     1.264618          0.01
     1.260095          1.65
     1.249648          1.07
     1.247434          1.09
     1.240375          0.00
     1.232272          3.84
     1.228769          0.32
     1.227908          0.19
     1.225882          1.65
     1.225092          5.36
     1.222815          7.92
     1.222752          4.76
     1.218614          0.08
     1.216633          6.73
     1.212174          4.63
     1.208395          0.59
     1.207669         13.45
     1.207661         13.14
     1.206759          0.41
     1.206710          0.15
     1.200697          8.43
     1.199534         13.77
     1.195555          1.81
     1.194830          3.18
     1.191947          2.42
     1.191645          0.22
     1.190093          0.23
     1.188155          6.28
     1.185974          0.00
     1.185931          7.04
     1.184389         11.16
     1.184046          0.15
     1.180847         10.45
     1.174326          3.04
     1.174075          8.73
     1.167697         11.76
     1.162584          5.55
     1.156896          0.55
     1.153428          1.05
     1.151367         10.53
     1.151147          0.39
     1.149476          0.12
     1.149110          1.31
     1.141138         10.12
     1.139413         16.21
     1.135023          0.47
     1.134414          0.05
     1.128636          0.02
     1.123172          0.15
     1.119214          8.82
     1.112528         18.01
     1.111286          1.67
     1.105601          0.42
     1.105146          0.01
     1.104266         10.01
     1.103523          0.58
     1.102514          0.54
     1.102480          0.64
     1.101098          3.53
     1.100478          0.81
     1.099018          6.76
     1.096807          0.13
     1.093539          2.79
     1.091724          0.21
     1.090952          3.70
     1.089109          0.33
     1.086365          2.36
     1.085572          6.66
     1.083407          0.00
     1.079394         14.82
     1.077733          3.01
     1.076699          0.18
     1.075077          5.86
     1.074820         19.48
     1.071432         19.50
     1.070417          5.52
     1.070198          0.36
     1.063095         15.32
     1.062163          0.00
     1.060727          4.83
     1.059408          9.71
     1.058051          7.35
     1.055998         17.50
     1.055470          0.13
     1.055389          0.46
     1.055380          0.03
     1.054480          0.00
     1.053173          0.42
     1.052810          6.76
     1.052756          1.50
     1.052208          3.78
     1.052087          6.78
     1.048485          9.17
     1.045251          0.39
     1.044202          5.49
     1.042954         14.26
     1.042683          0.93
     1.038001          1.08
     1.037916          3.50
     1.036714          3.04
     1.035471         10.20
     1.034783          0.22
     1.033340          0.31
     1.032122          4.60
     1.029791         12.01
     1.025627          0.09
     1.024847          8.19
     1.024711          1.23
     1.023822          3.77
     1.023446         12.48
     1.023419          7.89
     1.023411          0.61
     1.019516          0.30
     1.017791          1.48
     1.017410         17.12
     1.015121         15.54
     1.014768          9.39
     1.010720          6.85
     1.010642          0.02
     1.008384          9.04
     1.007749          3.02
##############################################################################
###                            Comments                                    ###
##############################################################################
###   Diffraction pattern calculated by Match!. 
###   I/Ic calculated by Match!. 
##############################################################################


