##############################################################################
###               Crystal structure data exported by Match!                ###
##############################################################################
###                           Data published by:                           ###
###                                                                        ###
###               COD (Crystallography Open Database)
##############################################################################
data_4511699
_citation_journal_full    'Design''
_citation_journal_volume  '14(8)'
_citation_page_first  '4124'
_citation_year  '2014'
_citation_title  'Acid-Driven Dimensionality Control of Cd(II) Complexes: From DiscreteDouble Open Cubane to One- and Three-Dimensional Networks'
loop_
_publ_author_name
  'Mobin Shaikh M.'
  'Mishra Veenu'
  'Chaudhary Archana'
  'Rai Dhirendra K.'
  'Golov Andrey A.'
  'Mathur Pradeep'
_chemical_formula_sum  'Cd O5 S'
_chemical_name_common  'Cadmium peroxymonosulfate'
_symmetry_space_group_name_H-M 'P 1 21/n 1'
_space_group_IT_number 14
_space_group_crystal_system 'monoclinic'
loop_
_symmetry_equiv_pos_as_xyz
   'x, y, z'
   '-x+0.5, y+0.5, -z+0.5'
   '-x, -y, -z'
   'x+0.5, -y+0.5, z+0.5'
_cell_length_a        7.62620
_cell_length_b        7.45310
_cell_length_c        7.62950
_cell_angle_alpha    90.0000
_cell_angle_beta    115.4230
_cell_angle_gamma    90.0000
_cell_formula_units_Z 4
loop_
_atom_site_label
_atom_site_fract_x
_atom_site_fract_y
_atom_site_fract_z
_atom_site_occupancy
_atom_site_B_iso_or_equiv
cd      0.459   0.260   0.240    1.00000    0.481
s      0.257   0.383   0.512    1.00000    0.236
o      0.385   0.241   0.494    1.00000    0.750
o      0.739   0.097   0.461    1.00000    0.544
o      0.365   0.487   0.692    1.00000    0.805
o      0.087   0.300   0.522    1.00000    0.915
o      0.204   0.499   0.342    1.00000    0.923
_cell_measurement_wavelength    1.541874
_cell_measurement_radiation   'x-rays'
_cell_measurement_temperature    150.000000
_exptl_crystal_density_diffrn    3.807000
_exptl_crystal_colour            'colorless'
loop_
_pd_peak_d_spacing
_pd_peak_intensity
     6.448348         32.68
     5.059608        121.81
     5.058428          7.69
     4.876508        630.43
     4.074665         25.77
     3.726550        270.64
     3.575246       1000.00
     3.445341         52.58
     3.443851         36.05
     3.387525          4.37
     3.386463         61.05
     3.277901          0.58
     3.277580        140.94
     3.226508         15.06
     3.224174        436.63
     3.127359         10.60
     3.126245        125.46
     2.959155         40.84
     2.749918         31.09
     2.661701         47.10
     2.661186         11.90
     2.529804        100.47
     2.529214        322.07
     2.528974          4.93
     2.527795         21.50
     2.503871         11.79
     2.503441          0.00
     2.438254         88.67
     2.394860        302.67
     2.393859         80.10
     2.337107          1.32
     2.336991          0.09
     2.335565          1.19
     2.334985          5.69
     2.318263        177.17
     2.195022          1.33
     2.194155          0.26
     2.164156         19.91
     2.163878          2.09
     2.149449         21.93
     2.121186        137.37
     2.092601          0.38
     2.091933         65.81
     2.079900         13.32
     2.079654          8.72
     2.065277        117.68
     2.052695          0.63
     2.052301         24.28
     2.037333         54.81
     2.015116          2.56
     2.014818         32.11
     1.967919         10.31
     1.965232         39.98
     1.955318          9.26
     1.954705          6.01
     1.942945         14.21
     1.942410         30.63
     1.901522         49.43
     1.900770          1.55
     1.880110         32.20
     1.879625         57.99
     1.863275         46.74
     1.861927         42.56
     1.842501          9.73
     1.841817         68.83
     1.815114          1.92
     1.814950          8.16
     1.814609          0.62
     1.813793          5.33
     1.798676          6.94
     1.798623          0.31
     1.790044          7.07
     1.787623         64.81
     1.772273         72.73
     1.771867         15.73
     1.747834          5.84
     1.747591          0.52
     1.747140          0.26
     1.746800          1.18
     1.722840         19.18
     1.722671         74.81
     1.722467         58.39
     1.721926         14.79
     1.694511          6.78
     1.693762         53.67
     1.693231         68.22
     1.686536         13.95
     1.686143          1.39
     1.678421          3.31
     1.677731         39.36
     1.673241          1.27
     1.673112          7.67
     1.672019          6.46
     1.671380          2.22
     1.638950         98.60
     1.638790         74.55
     1.625503         70.90
     1.618795          2.93
     1.618524          0.43
     1.613254         18.28
     1.612087         18.56
     1.580331          0.03
     1.580151          0.90
     1.575650         19.96
     1.575356         13.30
     1.563680         67.77
     1.563122          5.72
     1.530480         34.94
     1.530219         37.40
     1.525804          0.62
     1.525707          0.04
     1.509987          3.53
     1.509610         25.15
     1.500091          0.63
     1.499845          9.86
     1.499276          5.50
     1.498784         15.58
     1.494519          0.04
     1.494146          0.15
     1.494063          1.23
     1.493508          1.57
     1.493341          0.09
     1.492886          0.25
     1.485184          2.02
     1.485035          0.34
     1.483451          0.02
     1.483302          6.40
     1.479578         19.06
     1.479013          1.74
     1.478306         20.74
     1.469832         28.62
     1.469369         15.52
     1.456921          0.02
     1.456893          1.81
     1.456145          0.34
     1.455948          0.11
     1.452322         36.20
     1.450725         24.02
     1.450057          1.69
     1.447023          2.24
     1.446775          4.96
     1.415639          1.23
     1.415226         23.80
     1.411477          3.43
     1.410939          3.47
     1.410799          6.49
     1.410415          0.33
     1.407921         14.25
     1.399888         21.47
     1.390926          2.59
     1.390533         33.23
     1.387823          6.36
     1.387750          0.55
     1.386781          0.00
     1.386563          0.08
     1.374959          2.06
     1.374701          0.00
     1.374133         23.59
     1.368069          0.40
     1.367975         10.81
     1.358222          5.36
     1.355284          0.16
     1.355170          1.63
     1.355164          2.43
     1.354597          0.21
     1.353017          2.24
     1.352328         13.39
     1.344818          1.93
     1.344641          8.92
     1.336215          8.23
     1.330851         62.63
     1.330593         22.50
     1.329188          1.27
     1.328931          1.04
     1.320225          0.22
     1.319928          0.01
     1.319910          1.00
     1.319740          7.47
     1.308542         13.46
     1.308297         24.06
     1.300172          4.95
     1.300112          0.19
     1.299741          0.20
     1.299321          0.40
     1.299211          0.39
     1.298912          0.05
     1.293548          1.69
     1.293410          0.00
     1.292579          0.33
     1.292087          6.29
     1.289670          3.52
     1.284153         15.90
     1.283998          6.16
     1.283641          8.47
     1.283333          2.10
     1.276105         16.69
     1.274764          1.50
     1.274669          2.08
     1.270855         29.14
     1.270785          3.11
     1.270406          4.70
     1.264902         10.73
     1.264607          0.01
     1.264487         19.26
     1.263897          6.22
     1.251935         14.77
     1.251906          0.33
     1.251721          6.88
     1.251477         10.80
     1.250388          1.06
     1.250228          1.38
     1.249733          0.18
     1.249253          2.29
     1.246672          0.09
     1.246107         24.12
     1.242183         10.21
     1.234610         28.22
     1.234199          2.17
     1.229722          3.43
     1.229383          0.73
     1.227207          4.46
     1.227055          0.75
     1.224898         21.38
     1.222479          2.44
     1.222462          0.59
     1.221291          2.37
     1.221208          0.02
     1.219758          1.14
     1.219127          0.36
     1.218749         15.71
     1.213317          8.28
     1.212992         14.25
     1.205134          0.01
     1.204970          0.60
     1.204735          1.75
     1.204412          0.09
     1.203007          5.61
     1.200142          2.01
     1.199717          0.00
     1.197430          9.10
     1.196930          0.39
     1.191749          1.15
     1.188196          0.46
     1.186730          8.43
     1.186365         13.11
     1.182663         16.16
     1.182542         14.45
     1.180792          2.47
     1.180747          3.24
     1.180179          1.18
     1.179864          1.58
     1.179782          0.11
     1.179557          0.07
     1.173130          2.49
     1.172953          9.41
     1.171991          9.22
     1.171815         15.13
     1.168553          6.12
     1.168495          9.01
     1.168086          1.06
     1.167854         11.15
     1.167783         13.23
     1.167492          0.98
     1.165832          0.71
     1.165616          0.51
     1.160334          1.46
     1.159836          0.08
     1.159131         15.67
     1.158427          0.30
     1.158087         11.38
     1.148447          1.00
     1.147950          1.53
     1.147340          1.47
     1.147244          1.91
     1.146738          0.04
     1.146587          0.00
     1.145742          0.21
     1.145646          0.91
     1.144631          7.59
     1.135051          3.32
     1.134571         13.87
     1.129175          0.55
     1.128821          1.39
     1.127210          1.82
     1.127001         11.38
     1.126916          0.07
     1.126498         19.02
     1.125385          3.26
     1.125346          0.34
     1.125081          1.87
     1.124964          0.47
     1.117983          8.08
     1.117678          0.01
     1.114948          0.03
     1.114847          6.08
     1.111286          1.63
     1.111024          0.02
     1.108786          1.31
     1.108724          0.21
     1.108066          1.05
     1.107999          0.93
     1.107929          0.46
     1.107689          0.55
     1.107168          0.41
     1.107081          1.03
     1.102099          4.53
     1.101855          9.60
     1.097570         11.54
     1.097511         12.77
     1.097078          0.08
     1.096018          2.77
     1.095958          0.01
     1.095832          0.84
     1.095412          0.03
     1.094453          7.08
     1.092634          1.15
     1.092527          6.28
     1.089928          0.24
     1.089457          7.78
     1.082078         11.54
     1.081939         10.19
     1.078458         11.06
     1.078001          1.24
     1.075983          0.89
     1.075745          0.76
     1.075503          3.32
     1.074725          3.59
     1.066011          1.82
     1.065780          0.06
     1.065719          0.71
     1.065572          1.33
     1.065554          4.34
     1.065379          1.46
     1.065209          0.16
     1.064884          0.02
     1.063722         14.21
     1.060593         13.81
     1.060433          7.13
     1.057074          4.63
     1.056902          1.00
     1.052241          0.70
     1.052231          1.10
     1.051485          0.04
     1.051368          0.21
     1.050717          0.74
     1.050704          0.05
     1.050643          0.78
     1.050505          6.51
     1.050334          0.63
     1.049900         13.59
     1.049647          3.70
     1.048108          0.01
     1.047825          0.03
     1.046574          4.98
     1.046490         10.36
     1.046300          6.96
     1.046103          2.66
     1.045967          0.13
     1.045686          7.09
     1.042453          1.63
     1.042082         10.29
     1.039950          4.44
     1.039827          4.59
     1.039308          5.91
     1.039139          3.99
     1.039063          9.60
     1.038950          0.06
     1.038894         19.93
     1.038460          7.93
     1.034856          1.51
     1.034705          1.13
     1.034331          0.69
     1.034154          0.17
     1.033998          0.84
     1.033701          3.18
     1.032639          4.13
     1.030140         14.45
     1.029348         10.12
     1.029110          1.38
     1.029000         16.70
     1.028524          0.11
     1.026347         16.98
     1.026150          3.47
     1.025304          3.06
     1.025275          3.52
     1.024884          0.15
     1.024796          0.38
     1.023953          0.56
     1.023747          0.12
     1.021857          4.08
     1.021789          0.25
     1.021280          0.11
     1.020940          0.01
     1.020716          0.64
     1.020377          0.31
     1.018666          1.20
     1.017261          0.06
     1.017222          3.49
     1.011922          0.34
     1.011686          0.02
     1.011027          0.38
     1.009283          9.39
     1.007558         15.28
     1.007409          4.46
##############################################################################
###                            Comments                                    ###
##############################################################################
###   Diffraction pattern calculated by Match!. 
###   I/Ic calculated by Match!. 
##############################################################################


