##############################################################################
###               Crystal structure data exported by Match!                ###
##############################################################################
###                           Data published by:                           ###
###                                                                        ###
###               COD (Crystallography Open Database)
##############################################################################
data_9015975
_citation_journal_full    'ur Kristallographie''
_citation_journal_volume  '176'
_citation_page_first  '75'
_citation_page_last   '83'
_citation_year  '1986'
_citation_title  'Four monazite type structures: comparison of SrCrO4, SrSeO4,PbCrO4 (crocoite), and PbSeO4'
loop_
_publ_author_name
  'Effenberger H.'
  'Pertlik F.'
_chemical_formula_sum  'Cr O4 Pb'
_chemical_name_mineral  'Crocoite'
_symmetry_space_group_name_H-M 'P 1 21/n 1'
_space_group_IT_number 14
_space_group_crystal_system 'monoclinic'
loop_
_symmetry_equiv_pos_as_xyz
   'x, y, z'
   '-x+0.5, y+0.5, -z+0.5'
   '-x, -y, -z'
   'x+0.5, -y+0.5, z+0.5'
_cell_length_a        7.12700
_cell_length_b        7.43800
_cell_length_c        6.79900
_cell_angle_alpha    90.0000
_cell_angle_beta    102.4300
_cell_angle_gamma    90.0000
_cell_formula_units_Z 4
loop_
_atom_site_label
_atom_site_fract_x
_atom_site_fract_y
_atom_site_fract_z
_atom_site_occupancy
_atom_site_B_iso_or_equiv
pb      0.221   0.145   0.397    1.00000    1.313
cr      0.201   0.164   0.882    1.00000    0.718
o      0.254   0.004   0.057    1.00000    1.789
o      0.124   0.343   0.989    1.00000    1.526
o      0.029   0.100   0.686    1.00000    1.579
o      0.386   0.214   0.782    1.00000    1.526
_cell_measurement_wavelength    1.541874
_cell_measurement_radiation   'x-rays'
_exptl_crystal_density_diffrn    6.099000
loop_
_pd_peak_d_spacing
_pd_peak_intensity
     5.422333        109.24
     5.082028         64.19
     4.953227        273.78
     4.381625        289.86
     4.358421        139.28
     3.760395        120.58
     3.719000         73.80
     3.479970        565.82
     3.319815         35.32
     3.280094       1000.00
     3.244682         69.40
     3.152043        116.71
     3.090447         70.93
     3.066948          0.04
     3.031558        590.24
     3.003908        267.76
     2.829053          0.24
     2.711166        157.78
     2.654047         16.07
     2.598629        146.13
     2.547227        183.82
     2.541014         26.97
     2.508411         17.27
     2.476613          0.00
     2.461469         44.08
     2.353558         17.97
     2.335567          9.04
     2.322681        129.16
     2.257666        139.20
     2.254804         12.26
     2.253893        122.53
     2.243903        114.84
     2.223259          0.26
     2.214747         25.43
     2.190812          5.13
     2.179211          0.54
     2.157034          4.13
     2.155044         28.59
     2.121293          6.71
     2.091300        249.78
     2.056618         49.53
     2.046752         37.82
     2.019260         10.11
     2.004380          0.03
     2.002783         90.26
     1.989115         35.57
     1.988768          1.02
     1.986486         16.69
     1.982239         14.21
     1.978646        217.67
     1.968384        148.52
     1.927535          2.55
     1.921589          7.10
     1.901903         88.62
     1.880197          2.12
     1.868038         27.69
     1.859500         68.14
     1.848406        183.80
     1.847626        136.38
     1.829634         22.45
     1.816277         59.26
     1.807444         34.69
     1.799754          1.83
     1.796488         53.65
     1.790603          2.22
     1.758945         12.93
     1.756332          0.30
     1.753994          0.91
     1.739985         35.59
     1.730849         20.12
     1.710341         23.82
     1.706950         13.90
     1.698802         62.94
     1.694245         49.91
     1.694009         34.37
     1.689107         42.03
     1.667761          0.30
     1.665055          6.46
     1.659907         43.84
     1.656587         16.86
     1.656155         16.50
     1.651076          0.61
     1.641801         20.95
     1.640047         58.43
     1.636815         12.94
     1.631182          0.10
     1.625626          0.86
     1.622341          5.00
     1.620056         17.07
     1.618062          4.73
     1.615190         53.78
     1.605357          0.09
     1.603210         43.25
     1.594121          0.06
     1.582914          0.90
     1.576022          0.43
     1.571883          9.43
     1.564943          0.40
     1.555874          3.85
     1.552444         29.77
     1.551512          5.40
     1.545574         53.41
     1.545223          6.58
     1.544476          0.31
     1.533474         23.69
     1.515779          4.90
     1.509410          0.74
     1.506292          0.03
     1.501954          2.87
     1.482469         22.06
     1.470352         28.52
     1.460542          0.78
     1.459059          1.15
     1.454742          0.58
     1.452807         10.06
     1.451612          3.73
     1.450952         16.28
     1.445788         26.60
     1.434591         20.18
     1.434357         25.62
     1.425863          6.03
     1.425377          0.36
     1.424249          2.43
     1.424007         72.21
     1.423700          5.23
     1.421388         22.33
     1.421193         58.38
     1.420534         11.76
     1.414527          1.36
     1.407853         14.35
     1.406777          5.09
     1.401659         31.44
     1.401397          1.24
     1.401318         15.22
     1.400500         13.91
     1.399903         16.74
     1.395315         26.45
     1.386698         40.08
     1.379322          3.72
     1.379303         15.57
     1.371348          1.37
     1.368880          2.08
     1.368234         18.70
     1.367863         13.33
     1.363210          0.06
     1.362707          1.67
     1.359374          0.32
     1.358378         12.02
     1.357539         57.68
     1.355583          4.48
     1.355029          0.52
     1.353219          0.05
     1.344828          3.24
     1.337225         14.77
     1.333616         38.81
     1.330969          0.05
     1.327023          1.78
     1.319239          7.99
     1.317873          1.36
     1.312487          9.33
     1.310925          0.00
     1.309094          2.69
     1.307256          6.63
     1.307058          0.61
     1.307043         13.35
     1.306355         44.67
     1.304178         31.39
     1.303663         16.15
     1.299315          5.52
     1.296069         16.03
     1.292518          2.75
     1.291402         45.62
     1.287318          2.29
     1.285726          0.41
     1.277077          3.64
     1.276756          0.02
     1.273614          0.79
     1.270507         14.62
     1.268336          1.31
     1.261073          0.65
     1.258660          6.88
     1.258057          3.38
     1.257474         19.12
     1.255591          0.00
     1.254393          9.84
     1.254206         17.30
     1.253465          1.86
     1.252273          0.01
     1.250594          0.08
     1.241557          0.63
     1.239667         14.13
     1.238307         22.13
     1.238075         14.30
     1.237673          0.04
     1.235720          4.39
     1.234627          0.91
     1.233105          0.92
     1.232560          4.00
     1.230735         11.34
     1.228630         41.40
     1.226909          6.91
     1.220458         12.81
     1.219405          0.23
     1.218609          5.14
     1.215946          3.43
     1.213932          0.70
     1.213774         29.44
     1.213166          3.38
     1.210262          0.07
     1.210262          0.32
     1.208486          2.25
     1.207848          0.02
     1.205336          5.11
     1.192373          1.98
     1.191969          3.02
     1.191297          3.67
     1.189621          0.06
     1.189411          3.86
     1.186739         10.42
     1.186120         12.06
     1.185222          1.59
     1.180101          4.77
     1.179705          6.82
     1.179177          9.51
     1.176779         17.85
     1.173511          1.92
     1.171986          3.72
     1.171092          3.63
     1.170597         11.14
     1.168156         26.34
     1.167784         20.36
     1.164570          0.96
     1.162322          1.02
     1.161340          2.49
     1.159990          2.30
     1.159980          0.48
     1.159768          2.42
     1.156216          0.01
     1.148599          0.55
     1.146401          6.38
     1.146136         18.73
     1.144826          6.01
     1.143310          0.03
     1.141382          2.42
     1.137917         12.13
     1.136214          7.75
     1.135318          3.57
     1.131752          0.13
     1.131258          0.93
     1.130694         15.20
     1.130636          0.61
     1.129833          4.78
     1.129163          0.46
     1.128833          8.14
     1.127402          7.37
     1.126946         14.93
     1.121952          2.04
     1.121892          0.56
     1.120142          2.37
     1.119630          1.67
     1.119291          0.19
     1.119158          7.06
     1.118429          4.83
     1.116029         10.71
     1.114349          1.69
     1.114230          4.58
     1.111853          8.21
     1.111629         18.80
     1.107818          6.73
     1.107613          0.55
     1.107373          0.09
     1.106605          5.57
     1.102387         14.85
     1.102167          0.34
     1.097403          0.11
     1.096821          0.29
     1.095406          1.94
     1.094557          9.04
     1.093365          8.10
     1.091201          0.00
     1.089708          0.00
     1.089605         11.95
     1.087397          0.10
     1.086210          4.08
     1.084467          3.08
     1.083413          9.49
     1.082873          0.45
     1.082324         18.58
     1.081561          6.78
     1.081226         24.81
     1.080657          0.02
     1.078517          1.77
     1.078339          2.32
     1.078099          1.25
     1.077522          0.67
     1.076661         11.39
     1.073120          2.45
     1.072287          7.79
     1.071283          5.30
     1.070488          9.13
     1.070435          0.49
     1.069807          5.87
     1.069321          0.21
     1.069312          9.63
     1.067182          7.07
     1.065068          7.19
     1.064471          0.31
     1.063108          0.13
     1.061706          2.48
     1.060697          0.00
     1.060646          0.68
     1.058441          0.94
     1.057591         11.36
     1.053735         15.34
     1.052716          1.84
     1.052074          3.96
     1.050886         10.30
     1.050681          2.07
     1.050401          0.77
     1.050004         20.91
     1.049221          7.69
     1.047884          5.29
     1.047581          6.70
     1.045650          2.04
     1.042739          0.07
     1.041106          0.11
     1.040689         12.16
     1.040584          0.50
     1.039373          4.38
     1.035681          0.25
     1.033928          0.83
     1.032335          0.12
     1.030649          0.12
     1.030149          2.92
     1.029213          6.50
     1.029188         11.52
     1.028309          6.51
     1.027361         15.36
     1.026126          6.89
     1.025938          0.27
     1.023376          0.01
     1.022316          4.94
     1.018620          2.84
     1.018014          0.02
     1.017736          4.51
     1.017680          0.05
     1.017217          0.15
     1.016406          0.00
     1.016253          0.40
     1.015861          0.98
     1.014341          0.35
     1.014133          8.10
     1.011998          1.63
     1.010957         16.05
     1.010519          1.71
     1.009630          5.11
     1.009163          0.04
     1.008540          0.94
     1.007876          0.26
     1.006516          4.68
##############################################################################
###                            Comments                                    ###
##############################################################################
###   Dundas, Tasmania
###   Diffraction pattern calculated by Match!. 
###   I/Ic calculated by Match!. 
##############################################################################


