##############################################################################
###               Crystal structure data exported by Match!                ###
##############################################################################
###                           Data published by:                           ###
###                                                                        ###
###               COD (Crystallography Open Database)
##############################################################################
data_9001277
_citation_journal_full    'American Mineralogist'
_citation_journal_volume  '75'
_citation_page_first  '739'
_citation_page_last   '747'
_citation_year  '1990'
_citation_title  'High-pressure crystal chemistry of stishoviteP = 1.7 Gpa'
loop_
_publ_author_name
  'Ross N. L.'
  'Shu J. F.'
  'Hazen R. M.'
  'Gasparik T.'
_chemical_formula_sum  'O2 Si'
_chemical_name_mineral  'Stishovite'
_symmetry_space_group_name_H-M 'P 42/m n m'
_space_group_IT_number 136
_space_group_crystal_system 'tetragonal'
loop_
_symmetry_equiv_pos_as_xyz
   'x, y, z'
   '-y+0.5, x+0.5, z+0.5'
   '-x, -y, z'
   'y+0.5, -x+0.5, z+0.5'
   'x+0.5, -y+0.5, -z+0.5'
   '-x+0.5, y+0.5, -z+0.5'
   'y, x, -z'
   '-y, -x, -z'
   '-x, -y, -z'
   'y+0.5, -x+0.5, -z+0.5'
   'x, y, -z'
   '-y+0.5, x+0.5, -z+0.5'
   '-x+0.5, y+0.5, z+0.5'
   'x+0.5, -y+0.5, z+0.5'
   '-y, -x, z'
   'y, x, z'
_cell_length_a        4.17130
_cell_length_b        4.17130
_cell_length_c        2.66550
_cell_angle_alpha    90.0000
_cell_angle_beta     90.0000
_cell_angle_gamma    90.0000
loop_
_atom_site_label
_atom_site_fract_x
_atom_site_fract_y
_atom_site_fract_z
_atom_site_occupancy
_atom_site_B_iso_or_equiv
si      0.000   0.000   0.000    1.00000    0.139
o      0.306   0.306   0.000    1.00000    0.390
_cell_measurement_wavelength    1.541874
_cell_measurement_radiation   'x-rays'
_cell_measurement_pressure       1700000.000000
_exptl_crystal_density_diffrn    4.302000
loop_
_pd_peak_d_spacing
_pd_peak_intensity
     2.949554       1000.00
     2.246084        249.90
     2.085650          8.14
     1.977612        388.95
     1.865462        147.13
     1.528351        585.12
     1.474777        193.05
     1.332750        100.49
     1.319081         64.11
     1.290430         12.95
     1.232787        264.30
     1.214522        105.20
     1.182237         19.90
     1.156910          4.39
     1.123042         13.02
     1.084427         25.58
     1.061259         32.71
     1.042825         35.89
     1.011689         23.85
##############################################################################
###                            Comments                                    ###
##############################################################################
###   Diffraction pattern calculated by Match!. 
###   I/Ic calculated by Match!. 
###   Space group has been derived from given symmetry operations. 
##############################################################################


