##############################################################################
###               Crystal structure data exported by Match!                ###
##############################################################################
###                           Data published by:                           ###
###                                                                        ###
###               COD (Crystallography Open Database)
##############################################################################
data_9008280
_citation_journal_full    'Zeitschrift fur Kristallographie'
_citation_journal_volume  '149'
_citation_page_first  '315'
_citation_page_last   '326'
_citation_year  '1979'
_citation_title  'A new phase of coesite SiO2Note: this is a synthetic, twinned crystal of a typical coesite,it is not really a new phase'
loop_
_publ_author_name
  'Kirfe A.'
  'Will G.'
  'Arndt J.'
_chemical_formula_sum  'O2 Si'
_chemical_name_mineral  'Coesite'
_symmetry_space_group_name_H-M 'P 1 21/a 1'
_space_group_IT_number 14
_space_group_crystal_system 'monoclinic'
loop_
_symmetry_equiv_pos_as_xyz
   'x, y, z'
   '-x+0.5, y+0.5, -z'
   '-x, -y, -z'
   'x+0.5, -y+0.5, z'
_cell_length_a        7.14800
_cell_length_b       12.33400
_cell_length_c        7.11200
_cell_angle_alpha    90.0000
_cell_angle_beta    120.3000
_cell_angle_gamma    90.0000
loop_
_atom_site_label
_atom_site_fract_x
_atom_site_fract_y
_atom_site_fract_z
_atom_site_occupancy
_atom_site_B_iso_or_equiv
si      0.322   0.358   0.391    1.00000    0.450
si      0.686   0.358   0.111    1.00000    0.344
si      0.787   0.409   0.743    1.00000    0.639
si      0.219   0.407   0.756    1.00000    0.210
o      0.250   0.252   0.249    1.00000    0.707
o      0.004   0.366   0.752    1.00000    0.681
o      0.235   0.355   0.561    1.00000    0.773
o      0.579   0.373   0.514    1.00000    0.747
o      0.786   0.465   0.268    1.00000    0.521
o      0.208   0.458   0.233    1.00000    0.908
o      0.427   0.374   -0.018    1.00000    0.715
o      0.770   0.353   -0.060    1.00000    1.168
_cell_measurement_wavelength    1.541874
_cell_measurement_radiation   'x-rays'
_exptl_crystal_density_diffrn    2.949000
loop_
_pd_peak_d_spacing
_pd_peak_intensity
     6.167000         56.73
     6.140469          0.00
     5.528068          0.08
     5.519188          9.54
     5.496924          4.68
     4.366716         50.30
     4.362336          0.55
     4.351317          0.10
     3.573990          0.22
     3.432778         63.33
     3.423725          0.55
     3.421612        136.24
     3.416723        702.32
     3.416287        395.83
     3.410435          0.82
     3.092237          0.85
     3.091987        854.72
     3.085775        977.22
     3.083500       1000.00
     3.080486          2.09
     3.075876        837.41
     3.070234        168.73
     2.999182          0.73
     2.993512          0.23
     2.979317          0.00
     2.764034         75.20
     2.759594         21.06
     2.759479         60.81
     2.758373          0.23
     2.755581          0.01
     2.748462        142.39
     2.697304         90.19
     2.689495        313.46
     2.686425          0.17
     2.471139          0.26
     2.467965          0.08
     2.459992          0.01
     2.334674          0.01
     2.331567          0.02
     2.329604          0.00
     2.327608         85.08
     2.326243          0.04
     2.299045         36.25
     2.297127          0.14
     2.291233          0.01
     2.290993         63.29
     2.290599          2.70
     2.289000         26.42
     2.285941          8.72
     2.284315          0.00
     2.281181         41.07
     2.187847          0.22
     2.186194         20.07
     2.183358         24.91
     2.181168         35.35
     2.180904          0.24
     2.176545          0.00
     2.175658         58.75
     2.175141          1.48
     2.172435          0.05
     2.055667          0.19
     2.046823          0.02
     2.033712         21.25
     2.033127          0.20
     2.032384          0.25
     2.030176          0.91
     2.029153          5.05
     2.028132          8.06
     2.026839         89.80
     2.025525          0.01
     2.024624         26.57
     2.023494          0.13
     2.021315          0.45
     2.019208         28.34
     1.955005          2.22
     1.951472          0.05
     1.950711          0.60
     1.950320          0.03
     1.949333          0.01
     1.942621          0.06
     1.928311          0.19
     1.926801          0.06
     1.923000          0.00
     1.864055          0.09
     1.863032          8.18
     1.859756          0.03
     1.857050          0.00
     1.856178         16.15
     1.854496          0.00
     1.842689          0.25
     1.839729         73.63
     1.832308         98.51
     1.786995        175.75
     1.781936          0.52
     1.779679          0.08
     1.778789        108.43
     1.777941          0.16
     1.774398          1.74
     1.768530          0.62
     1.759752          0.10
     1.756316          0.30
     1.716879          0.05
     1.716389          0.74
     1.714750          0.01
     1.713673         31.87
     1.711862         45.21
     1.711292          0.14
     1.710806         10.37
     1.708361         32.30
     1.708144        115.63
     1.705314          0.07
     1.705218         32.86
     1.700484          6.50
     1.698415          8.01
     1.697709          8.48
     1.696936          0.00
     1.695916        126.58
     1.694556          0.39
     1.694459          2.26
     1.694299         20.29
     1.693652         63.60
     1.692412          0.46
     1.692074          0.80
     1.691752          0.07
     1.690477          3.25
     1.688707          6.93
     1.686934          0.02
     1.653979          0.16
     1.652075          0.06
     1.649775          1.22
     1.646238        167.33
     1.643137          0.01
     1.641503          6.86
     1.638879          0.26
     1.631886          0.09
     1.629145          0.05
     1.584288         12.82
     1.582614          3.68
     1.581768          0.02
     1.580592         51.80
     1.580377         37.36
     1.579894          1.22
     1.578802         42.48
     1.578180          0.83
     1.577481          0.18
     1.575187         36.77
     1.574751          8.05
     1.573313          0.02
     1.546119         41.49
     1.545993         19.69
     1.544389          0.02
     1.543807          0.54
     1.542888         43.00
     1.541941          0.04
     1.541750         45.90
     1.540398          0.07
     1.540243         78.52
     1.539900          4.41
     1.538939          0.00
     1.537938         35.11
     1.535117         36.21
     1.533990          0.00
     1.530956          0.01
     1.530878          0.08
     1.530122          0.01
     1.528216          0.00
     1.523363          0.02
     1.500032          0.01
     1.499591          5.42
     1.498611          0.03
     1.496894          0.00
     1.496756          0.91
     1.495958         25.74
     1.495782          0.39
     1.495336          0.02
     1.494250          5.25
     1.491930          0.01
     1.490707          0.42
     1.489659         16.16
     1.455572          1.03
     1.454112          0.01
     1.450439          0.00
     1.447170          0.39
     1.447067          0.02
     1.444519          0.00
     1.442348          0.14
     1.440455          0.20
     1.438136          0.00
     1.415648          0.06
     1.414515          0.16
     1.414068         19.86
     1.411692          0.12
     1.411059          0.10
     1.410319         10.74
     1.409327          0.06
     1.409169          0.19
     1.407991          0.64
     1.407589         12.01
     1.407148          0.04
     1.406566         25.50
     1.405734         13.34
     1.405108          0.06
     1.404565          7.99
     1.404372          0.11
     1.404188          0.07
     1.403459          1.32
     1.402536         32.92
     1.402445          2.03
     1.402048         13.83
     1.401429          0.00
     1.400216         19.14
     1.384146          0.01
     1.383448          0.00
     1.382017          0.85
     1.379797          3.37
     1.379740          4.44
     1.379186          1.07
     1.378528          2.70
     1.377790          6.90
     1.376099          0.04
     1.375638          0.03
     1.374231          0.00
     1.373907          0.00
     1.348652          0.74
     1.347691          0.05
     1.344747         61.83
     1.344606          0.37
     1.343212         83.57
     1.342610        110.72
     1.342523          0.26
     1.341886         15.20
     1.340701          1.35
     1.339717         13.84
     1.339366          0.01
     1.338228         44.98
     1.337983          0.24
     1.337857          0.17
     1.337538         66.57
     1.337394          0.04
     1.336686         32.81
     1.335363         26.08
     1.335176         37.86
     1.334755          1.46
     1.333174         46.43
     1.333061          0.03
     1.331939          5.10
     1.319364          1.63
     1.317737          0.22
     1.317553         76.49
     1.316773          0.19
     1.316619          0.01
     1.315608          0.24
     1.313812         59.86
     1.313742          0.01
     1.312234          0.00
     1.311402          9.23
     1.310299         49.50
     1.309986          0.00
     1.309234          0.20
     1.308095          0.00
     1.303349          0.00
     1.290092          7.71
     1.289527          0.13
     1.287438          0.40
     1.287101         18.06
     1.286019          0.08
     1.285539          3.84
     1.285124          0.14
     1.284835         10.10
     1.284276          0.15
     1.283569          0.04
     1.283195          0.01
     1.283168         40.32
     1.281790          0.10
     1.281501          0.36
     1.280642         13.13
     1.279598         83.66
     1.278761          3.17
     1.278430          0.09
     1.277994         44.86
     1.274824          0.01
     1.273843          0.16
     1.254666          0.05
     1.252895          0.03
     1.252480          0.00
     1.251520          0.00
     1.251434          0.00
     1.250282          0.00
     1.237158          0.00
     1.235664          0.03
     1.235569         12.15
     1.234894          0.01
     1.234619         44.17
     1.233982          5.69
     1.233727          0.50
     1.233400          8.73
     1.232519          0.43
     1.231482          0.01
     1.230914          0.02
     1.230623          0.35
     1.230423          5.80
     1.229996         41.15
     1.229675          0.02
     1.229659         14.17
     1.228876          1.54
     1.228794          0.00
     1.228176         17.74
     1.228094          0.00
     1.227929          7.46
     1.226958          0.01
     1.226468          0.22
     1.225244         40.10
     1.225184          0.12
     1.224919          1.74
     1.224506          0.02
     1.223697         14.80
     1.222051         19.38
     1.212649         11.95
     1.210306          0.06
     1.209576          0.37
     1.209482          0.01
     1.209247          0.00
     1.204444          0.01
     1.191330          0.49
     1.185811         34.39
     1.184684         26.21
     1.184365          0.01
     1.183372          0.37
     1.182695         31.09
     1.182569          0.22
     1.182308          0.04
     1.182183          1.81
     1.181469         45.64
     1.180774         33.99
     1.180609         30.50
     1.180550          0.07
     1.180117          0.95
     1.179858          0.79
     1.178109          0.02
     1.177529          0.00
     1.177334          0.03
     1.176718         31.87
     1.170028          6.95
     1.169705          0.03
     1.169017          2.89
     1.168565          0.01
     1.168145          0.00
     1.167337         11.21
     1.165923          0.01
     1.165784          1.89
     1.165290          0.01
     1.165179          0.01
     1.165040          1.89
     1.164802         18.91
     1.164799          0.04
     1.163990          0.01
     1.163804          8.11
     1.163801          0.00
     1.163711          0.00
     1.163432          0.00
     1.163121          0.14
     1.162384          0.03
     1.162265         16.79
     1.162091          0.00
     1.161752         20.62
     1.160770          0.00
     1.160614          5.66
     1.160611          0.04
     1.157984          0.10
     1.157450          0.01
     1.157138          0.02
     1.155509          0.00
     1.149523          0.01
     1.148563          0.15
     1.147899          5.41
     1.147116          0.06
     1.146481          0.19
     1.145912          0.09
     1.145711          0.07
     1.145616          0.02
     1.145496          2.14
     1.145300          2.42
     1.144524          0.05
     1.144500          8.39
     1.144259          4.75
     1.143481          0.11
     1.142970          3.18
     1.142930          1.09
     1.142157          2.80
     1.141242          0.14
     1.140932          0.01
     1.140591          2.98
     1.140537          0.68
     1.138908         16.08
     1.138762          6.35
     1.136812          0.20
     1.128792          0.54
     1.127657         37.78
     1.127071          0.01
     1.125345          0.00
     1.125265          0.00
     1.124445          0.01
     1.123099         10.41
     1.122428          0.08
     1.121567          0.04
     1.119195          0.01
     1.118432          0.01
     1.116961          0.00
     1.111516          0.01
     1.111273          0.58
     1.109784          0.01
     1.107030          0.60
     1.106369          0.06
     1.105825          0.16
     1.105614          0.16
     1.105469         20.65
     1.105318          0.57
     1.105047         12.52
     1.104447          4.03
     1.103838          7.85
     1.103283          0.09
     1.103212          4.03
     1.103034          1.11
     1.102953          0.00
     1.102567          0.25
     1.101708          8.89
     1.101472          2.76
     1.100583         13.83
     1.099385         16.26
     1.099074          0.35
     1.098306          0.02
     1.093924          0.71
     1.093890          0.00
     1.093097          0.01
     1.092239          0.01
     1.091977          0.18
     1.091679          0.00
     1.091114          0.06
     1.090908          8.02
     1.090584          0.34
     1.090452          3.70
     1.090249          0.00
     1.089704          0.02
     1.089584         12.70
     1.089527          2.09
     1.089187          0.05
     1.088272          3.74
     1.087829          0.23
     1.087571          0.99
     1.087472          0.17
     1.086218          0.19
     1.086213          0.13
     1.085471         19.52
     1.085421          0.12
     1.084614          0.09
     1.072994          1.69
     1.072776         19.94
     1.071941         10.18
     1.071435          3.12
     1.071188          0.00
     1.071068         21.12
     1.070969          0.24
     1.070550         24.39
     1.070467          1.69
     1.069923          0.10
     1.069857          2.52
     1.069367          8.89
     1.069174          0.01
     1.068957          0.05
     1.068929          0.01
     1.068919          8.35
     1.068362          0.84
     1.068106          0.13
     1.067657          0.09
     1.067062          0.02
     1.066631          0.00
     1.066487          1.24
     1.065745          3.06
     1.065044          0.00
     1.059770          3.97
     1.058400          6.13
     1.058205          0.03
     1.057838          0.07
     1.057143          0.08
     1.056422          0.02
     1.056397          0.03
     1.054280          0.02
     1.054102          0.00
     1.054009          0.05
     1.053855          0.00
     1.053232          0.02
     1.052040          0.15
     1.051406          0.01
     1.050183          0.00
     1.045654          0.01
     1.044638         25.10
     1.044338          0.57
     1.044211          0.03
     1.043982          0.03
     1.042217          5.97
##############################################################################
###                            Comments                                    ###
##############################################################################
###   Diffraction pattern calculated by Match!. 
###   I/Ic calculated by Match!. 
##############################################################################


