##############################################################################
###               Crystal structure data exported by Match!                ###
##############################################################################
###                           Data published by:                           ###
###                                                                        ###
###               COD (Crystallography Open Database)
##############################################################################
data_9016406
_citation_journal_full    'Materials Science Forum'
_citation_journal_volume  '79-82'
_citation_page_first  '821'
_citation_page_last   '826'
_citation_year  '1991'
_citation_title  'Rietveld studies of the aluminium-iron substitution in synthetic goethite'
loop_
_publ_author_name
  'Hazemann J.-L.'
  'B?rar J. F.'
  'Manceau A.'
_chemical_formula_sum  'Fe O2'
_chemical_name_mineral  'Goethite'
_symmetry_space_group_name_H-M 'P b n m'
_space_group_IT_number 62
_space_group_crystal_system 'orthorhombic'
loop_
_symmetry_equiv_pos_as_xyz
   'x, y, z'
   '-x, -y, z+0.5'
   'x+0.5, -y+0.5, -z'
   '-x+0.5, y+0.5, -z+0.5'
   '-x, -y, -z'
   'x, y, -z+0.5'
   '-x+0.5, y+0.5, z'
   'x+0.5, -y+0.5, z+0.5'
_cell_length_a        4.60480
_cell_length_b        9.95950
_cell_length_c        3.02300
_cell_angle_alpha    90.0000
_cell_angle_beta     90.0000
_cell_angle_gamma    90.0000
loop_
_atom_site_label
_atom_site_fract_x
_atom_site_fract_y
_atom_site_fract_z
_atom_site_occupancy
_atom_site_B_iso_or_equiv
fe      0.048   0.854   0.250    1.00000    1.000
o      0.708   0.200   0.250    1.00000    1.000
o      0.204   0.053   0.250    1.00000    1.000
_cell_measurement_wavelength    1.541874
_cell_measurement_radiation   'x-rays'
_exptl_crystal_density_diffrn    4.209000
loop_
_pd_peak_d_spacing
_pd_peak_intensity
     4.979750        136.94
     4.179676       1000.00
     3.380878        109.03
     2.692944        446.17
     2.584119        250.86
     2.527096         51.97
     2.489875        146.71
     2.449474        705.18
     2.302400         29.01
     2.253526         96.71
     2.243238         29.94
     2.190201        160.89
     2.089838         13.82
     2.010804         37.98
     1.921902         63.05
     1.891934          6.63
     1.828188          7.26
     1.801435         99.94
     1.773621         26.36
     1.719049        352.04
     1.690439        101.25
     1.659917         33.16
     1.603746         73.15
     1.564364        225.93
     1.561558          4.19
     1.517023          6.55
     1.511500        102.36
     1.506394         43.99
     1.475426         30.24
     1.466833         47.29
     1.455001        102.91
     1.446342          5.61
     1.421411         56.91
     1.393225         43.10
     1.387390          0.32
     1.379877         10.12
     1.368616         39.40
     1.359376         54.40
     1.355874         19.02
     1.348270          0.12
     1.346472         21.29
     1.319682         20.96
     1.318072         68.41
     1.306605          0.60
     1.292060         27.02
     1.265311         19.30
     1.263548          9.14
     1.253500          7.96
     1.244938          0.29
     1.244016         25.15
     1.239794          1.28
     1.229981          4.44
     1.224737          3.36
     1.215827          0.32
     1.210335          0.18
     1.201791          0.08
     1.199369         31.20
     1.180906          2.11
     1.164915          2.00
     1.151200          4.59
     1.151143         24.23
     1.143586         28.02
     1.128013         11.61
     1.126959          8.82
     1.126763         36.15
     1.123622          8.56
     1.121619          0.34
     1.117586         12.96
     1.116776          0.93
     1.095101         12.42
     1.087663          4.04
     1.086058          1.90
     1.075977          4.81
     1.070739          3.49
     1.069610          5.05
     1.066982         20.53
     1.055969         19.30
     1.052645         24.72
     1.051571          2.50
     1.044919          1.49
     1.043458          7.85
     1.029624         19.88
     1.024424         24.40
     1.023435         26.93
     1.013682         26.19
     1.010740         34.90
##############################################################################
###                            Comments                                    ###
##############################################################################
###   Diffraction pattern calculated by Match!. 
###   I/Ic calculated by Match!. 
###   Space group has been derived from given symmetry operations. 
##############################################################################


