##############################################################################
###               Crystal structure data exported by Match!                ###
##############################################################################
###                           Data published by:                           ###
###                                                                        ###
###               COD (Crystallography Open Database)
##############################################################################
data_9012653
_citation_journal_full    'Crystallography Reports'
_citation_journal_volume  '47'
_citation_page_first  '404'
_citation_page_last   '407'
_citation_year  '2002'
_citation_title  'Average structure of cubic lazurite with a three-dimensional incommensuratemodulationLocality: Malo-Bystrinskoe deposit, Lake Baikal region, Russia'
loop_
_publ_author_name
  'Rastsvetaeva R. K.'
  'Bolotina N. B.'
  'Sapozhnikov A. N.'
  'Kashaev A. A.'
  'Schoenleber A.'
  'Chapuis G.'
_chemical_formula_sum  'Al3 Ca0.828 Cl0.048 Na3.172 O13.76 S1.022 Si3'
_chemical_name_mineral  'Lazurite'
_symmetry_space_group_name_H-M 'P 2 3'
_space_group_IT_number 195
_space_group_crystal_system 'cubic'
loop_
_symmetry_equiv_pos_as_xyz
   'x, y, z'
   'z, x, y'
   'y, z, x'
   '-y, -z, x'
   'z, -x, -y'
   '-y, z, -x'
   '-z, -x, y'
   '-z, x, -y'
   'y, -z, -x'
   '-x, -y, z'
   'x, -y, -z'
   '-x, y, -z'
_cell_length_a        9.07700
_cell_length_b        9.07700
_cell_length_c        9.07700
_cell_angle_alpha    90.0000
_cell_angle_beta     90.0000
_cell_angle_gamma    90.0000
loop_
_atom_site_label
_atom_site_fract_x
_atom_site_fract_y
_atom_site_fract_z
_atom_site_occupancy
_atom_site_B_iso_or_equiv
na      0.259   0.259   0.259    0.44000    4.400
na      0.202   0.202   0.202    0.24000    3.099
na      0.325   0.325   0.325    0.32000    5.699
na      0.687   0.687   0.687    0.37000    6.600
na      0.755   0.755   0.755    0.21600    5.099
ca      0.755   0.755   0.755    0.14400    5.099
ca      0.815   0.815   0.815    0.27000    5.000
si      0.500   0.250   0.000    0.50000    3.200
al      0.500   0.250   0.000    0.50000    3.200
si      0.500   0.000   0.250    0.50000    3.599
al      0.500   0.000   0.250    0.50000    3.599
s      0.000   0.000   0.000    0.51000    9.300
s      0.500   0.500   0.500    0.37000    8.100
os      0.900   0.900   0.900    0.51000    11.399
os      0.393   0.393   0.393    0.37000    10.400
s      0.152   0.500   0.500    0.05600    19.300
cl      0.152   0.500   0.500    0.00400    19.300
s      0.259   0.000   0.000    0.06600    8.700
cl      0.259   0.000   0.000    0.00400    8.700
s      0.268   0.500   0.500    0.02600    10.299
cl      0.268   0.500   0.500    0.00400    10.299
s      0.147   0.000   0.000    0.04600    11.600
cl      0.147   0.000   0.000    0.00400    11.600
o      0.351   0.351   0.016    1.00000    7.800
o      0.147   0.146   0.535    0.68000    4.299
o      0.151   0.152   0.450    0.32000    3.200
_cell_measurement_wavelength    1.541874
_cell_measurement_radiation   'x-rays'
_exptl_crystal_density_diffrn    2.336000
loop_
_pd_peak_d_spacing
_pd_peak_intensity
     9.077000        143.90
     6.418408        620.28
     5.240608         34.16
     4.538500        106.76
     4.059358         17.27
     3.705670       1000.00
     3.209204          3.63
     3.025667          9.77
     2.870399        276.35
     2.736818          0.68
     2.620304        277.59
     2.517507          0.08
     2.425930        286.94
     2.269250          1.07
     2.201496          3.25
     2.139469        119.17
     2.082407          1.80
     2.029679         13.59
     1.980764          1.32
     1.935223        109.06
     1.852835         16.33
     1.815400          0.07
     1.780146         92.13
     1.746869          0.98
     1.685557          3.22
     1.657226          0.63
     1.604602         69.78
     1.580103          0.30
     1.556693         15.94
     1.534293          0.47
     1.512833         12.97
     1.492250          0.84
     1.472484         21.31
     1.435200          2.05
     1.417589          0.24
     1.400611          3.43
     1.384229          0.13
     1.368409         30.29
     1.353119          0.18
     1.338331         10.97
     1.310152          5.50
     1.296714          0.04
     1.283682         14.03
     1.271034          0.20
     1.258753          2.68
     1.246822          0.37
     1.235223         15.06
     1.212965          0.72
     1.202278          0.04
     1.191868          1.88
     1.181725          0.08
     1.162191          0.13
     1.152780          9.11
     1.134625          2.84
     1.125863          0.13
     1.117301          3.85
     1.108932          0.04
     1.100748          1.34
     1.092742          0.09
     1.084909          0.34
     1.069735          1.42
     1.062382          0.07
     1.055180          2.71
     1.048122          0.04
     1.041203          4.98
     1.034420          0.11
     1.027768          1.62
     1.014839          3.87
     1.008556          0.08
##############################################################################
###                            Comments                                    ###
##############################################################################
###   Diffraction pattern calculated by Match!. 
###   I/Ic calculated by Match!. 
###   Space group has been derived from given symmetry operations. 
##############################################################################


