##############################################################################
###               Crystal structure data exported by Match!                ###
##############################################################################
###                           Data published by:                           ###
###                                                                        ###
###               COD (Crystallography Open Database)
##############################################################################
data_9015549
_citation_journal_full    'Mineralogical Magazine'
_citation_journal_volume  '75'
_citation_page_first  '2857'
_citation_page_last   '2867'
_citation_year  '2011'
_citation_title  'Anorpiment, As2S3, the triclinic dimorph of orpiment'
loop_
_publ_author_name
  'Kampf A. R.'
  'Downs R. T.'
  'Housley R. M.'
  'Jenkins R. A.'
  'Hyrsl J.'
_chemical_formula_sum  'As2 S3'
_chemical_name_mineral  'Anorpiment'
_symmetry_space_group_name_H-M 'P -1'
_space_group_IT_number 2
_space_group_crystal_system 'triclinic'
loop_
_symmetry_equiv_pos_as_xyz
   'x, y, z'
   '-x, -y, -z'
_cell_length_a        5.75770
_cell_length_b        8.71690
_cell_length_c       10.26820
_cell_angle_alpha    78.1520
_cell_angle_beta     75.8170
_cell_angle_gamma    89.8610
loop_
_atom_site_label
_atom_site_fract_x
_atom_site_fract_y
_atom_site_fract_z
_atom_site_occupancy
_atom_site_B_iso_or_equiv
as      0.391   0.362   0.672    1.00000    1.928
as      0.811   0.175   0.837    1.00000    1.921
as      0.374   0.679   0.834    1.00000    1.938
as      0.935   0.864   0.669    1.00000    1.895
s      0.901   0.920   0.879    1.00000    2.242
s      0.499   0.118   0.755    1.00000    2.400
s      0.755   0.619   0.748    1.00000    2.368
s      0.056   0.275   0.626    1.00000    2.139
s      0.311   0.775   0.623    1.00000    2.171
s      0.243   0.424   0.881    1.00000    2.289
_cell_measurement_wavelength    1.541874
_cell_measurement_radiation   'x-rays'
_exptl_crystal_density_diffrn    3.346000
loop_
_pd_peak_d_spacing
_pd_peak_intensity
     9.730734          4.66
     8.520324          0.26
     7.208956          0.00
     5.829173          0.08
     5.575083          0.10
     5.461662          0.22
     4.865367       1000.00
     4.776892        148.90
     4.749572         95.34
     4.671074          0.42
     4.560892        309.59
     4.460216        271.74
     4.387592          6.92
     4.260162        276.79
     4.245792          9.26
     4.225925          3.05
     4.134421          5.79
     4.025591          0.20
     3.886413          0.03
     3.702721        306.47
     3.631012         25.69
     3.604478        601.70
     3.584398        313.91
     3.477660         41.71
     3.470554         54.33
     3.305498         74.65
     3.286057          4.21
     3.281959         75.21
     3.269590          0.21
     3.256406         83.46
     3.251944         57.85
     3.244947          2.37
     3.243578          0.02
     3.168773         68.49
     3.158983         88.67
     2.914587        112.99
     2.899749         25.78
     2.895769          0.00
     2.891733         54.36
     2.876785        529.58
     2.869093         83.05
     2.847686          8.39
     2.840108          0.02
     2.838597          0.09
     2.811364         21.85
     2.803627         73.67
     2.790981          7.90
     2.787541          0.38
     2.734208          0.12
     2.730831          7.83
     2.717107          0.03
     2.715069          0.01
     2.689772         85.08
     2.654370         91.22
     2.610710          0.41
     2.594210          2.72
     2.583940          0.24
     2.583572          0.15
     2.571509        281.58
     2.549830          0.51
     2.546052        236.39
     2.541183          2.60
     2.533626        200.71
     2.518351         96.24
     2.501316        295.51
     2.483687          0.15
     2.481631          0.01
     2.480533        297.35
     2.467015          6.73
     2.451415        265.44
     2.436287         42.98
     2.432683        131.36
     2.416695          1.69
     2.407275         20.19
     2.402985          0.04
     2.395642         28.34
     2.389475          1.55
     2.388446          9.50
     2.374786         17.67
     2.372751         16.64
     2.357826          1.42
     2.352376         29.82
     2.351838          0.77
     2.350481         12.36
     2.338224          0.13
     2.335537         64.30
     2.330664          1.27
     2.318465         31.12
     2.280446          3.48
     2.274579          0.04
     2.269855        143.41
     2.256857         25.88
     2.254284          0.56
     2.249752          0.13
     2.230108          1.76
     2.227656        135.73
     2.218788          0.38
     2.213178          1.38
     2.197298         23.95
     2.193796          0.56
     2.179150         18.45
     2.130081         91.57
     2.124139         15.33
     2.122896         19.97
     2.112963          0.22
     2.100671          3.45
     2.088461         59.91
     2.078548         26.19
     2.076914          0.04
     2.069325          7.86
     2.067210          1.48
     2.058496          6.98
     2.049823         16.95
     2.041582          0.18
     2.040165          0.65
     2.038793         46.62
     2.032600          6.40
     2.031643          5.78
     2.026643          6.52
     2.024138          4.14
     2.023850          3.99
     2.021265          0.95
     2.017665         38.94
     2.012795          4.91
     2.010724          8.43
     2.007664          0.50
     1.999416         11.56
     1.994685         11.57
     1.990731          0.09
     1.985669         11.15
     1.985167          0.81
     1.984641          3.78
     1.982929         12.23
     1.976781          0.36
     1.966625          0.01
     1.963596         17.81
     1.957139          0.01
     1.949817          0.01
     1.946287          1.62
     1.946147          0.87
     1.943206        155.99
     1.943058          0.10
     1.941052          1.43
     1.939653          0.05
     1.933972          0.83
     1.930986          0.46
     1.915691          0.11
     1.913009          0.08
     1.909464          0.13
     1.903871          0.26
     1.901609          0.12
     1.893175         27.33
     1.873224         16.33
     1.868259          4.88
     1.865772          0.19
     1.864867         34.76
     1.861950          9.96
     1.858361          2.33
     1.851361          5.11
     1.846896          0.00
     1.843876         41.40
     1.842806          0.23
     1.841000         44.95
     1.835057          0.51
     1.827021         14.72
     1.823884         41.24
     1.822050          1.75
     1.820554          2.58
     1.815869          0.08
     1.815506        182.18
     1.813430          0.02
     1.808845          0.15
     1.806044          4.46
     1.802239         25.11
     1.799990          1.00
     1.796982          0.86
     1.796895         36.53
     1.792199          2.37
     1.791450          0.00
     1.791138          0.22
     1.789386          9.37
     1.786649         33.22
     1.756789          3.37
     1.755752         49.36
     1.754039         14.26
     1.752639          0.05
     1.746729         20.20
     1.744914        104.61
     1.742191          0.03
     1.740613         12.96
     1.740384         39.48
     1.738830          2.34
     1.738020          0.15
     1.735753          7.63
     1.735277          4.02
     1.726176          6.62
     1.725989          0.00
     1.720427         24.43
     1.719815          0.34
     1.717521          2.24
     1.716839         27.12
     1.713216          4.59
     1.709543          0.06
     1.709326          0.51
     1.708855         88.07
     1.707389          0.48
     1.704065          0.12
     1.704016         48.62
     1.703478         37.30
     1.703136         10.58
     1.695693         15.91
     1.695142         18.59
     1.685658          0.02
     1.683117         63.01
     1.680550          0.47
     1.677581          0.93
     1.673404          1.43
     1.672699         30.06
     1.666854          4.45
     1.666543         77.28
     1.666145         69.40
     1.665489          0.74
     1.664525         34.18
     1.660941          0.01
     1.659730          0.06
     1.659651          0.02
     1.658825          0.03
     1.653124          0.01
     1.652749         16.43
     1.647569          0.02
     1.643847         30.79
     1.643029          7.57
     1.640980          0.73
     1.638211          0.20
     1.636993         48.26
     1.634795          4.40
     1.633807         28.31
     1.632850          0.13
     1.632766          6.29
     1.631577          8.95
     1.631291         47.39
     1.629579          0.30
     1.628294          0.04
     1.628203          0.00
     1.626115          6.67
     1.625972         11.02
     1.622473         15.67
     1.621789         37.75
     1.621357          0.00
     1.616798         36.83
     1.614901         45.79
     1.614534          1.50
     1.613146         14.19
     1.609925          0.78
     1.607329          0.02
     1.607126          0.33
     1.603189         13.85
     1.595924         24.25
     1.595683          1.18
     1.592297         17.36
     1.589571         45.05
     1.588433          0.55
     1.584808         47.59
     1.584387          3.17
     1.583191         12.80
     1.582485          2.55
     1.580540         35.56
     1.579492          0.08
     1.569819         11.12
     1.563554          2.98
     1.562199          2.41
     1.561540         18.53
     1.558937          0.05
     1.558028         25.66
     1.557567         82.32
     1.557025          0.01
     1.551509          0.16
     1.551467         45.16
     1.547969          4.00
     1.547819          4.63
     1.547781         76.59
     1.540678         31.67
     1.540358          5.51
     1.534767          0.13
     1.525931         32.20
     1.525026          1.39
     1.523023          2.13
     1.520864          5.27
     1.520732          3.78
     1.520297          7.08
     1.519686         40.62
     1.514228         29.35
     1.511765          0.09
     1.510219          4.94
     1.506389          4.15
     1.501773          4.96
     1.500493         32.94
     1.499270          0.02
     1.493546          3.61
     1.492826          2.04
     1.492745          4.60
     1.487707          5.65
     1.486950          0.12
     1.486739          7.29
     1.486520          1.48
     1.481955          0.02
     1.478663          1.85
     1.478136          0.18
     1.478109          0.01
     1.475015         15.62
     1.472848          1.33
     1.472243          0.02
     1.471903          1.24
     1.468440          0.06
     1.467406          0.02
     1.465788          0.68
     1.462531         14.55
     1.462328          0.14
     1.460380          2.34
     1.460076          0.42
     1.459539          1.33
     1.458854          1.08
     1.457293         10.81
     1.453669          3.14
     1.450505          1.96
     1.449875          4.11
     1.449589          4.11
     1.447885          6.54
     1.446699          0.28
     1.445867          0.48
     1.444431          1.89
     1.443420          1.41
     1.442633          1.28
     1.441791          0.03
     1.440852          1.92
     1.440209          1.20
     1.438392          4.25
     1.436711          0.00
     1.436167         30.20
     1.435635          0.08
     1.434547          2.54
     1.434245          3.62
     1.433730          0.10
     1.431897          1.49
     1.431838          1.53
     1.431138          3.22
     1.430774          0.00
     1.423843         11.74
     1.423425          9.41
     1.423423          9.98
     1.422327         18.25
     1.420739         11.84
     1.420460          0.02
     1.420054          4.07
     1.419298         11.21
     1.417040          0.87
     1.415953         19.74
     1.415920         11.26
     1.415825          1.29
     1.415264          1.28
     1.415214          0.38
     1.414777          1.42
     1.412406          0.46
     1.410996          1.89
     1.410075          5.70
     1.409270          0.11
     1.408642          6.48
     1.407849          0.20
     1.406260          0.29
     1.405682          0.87
     1.405408          3.19
     1.402816         13.89
     1.402248          7.25
     1.402050          0.09
     1.401813          0.98
     1.400940          3.10
     1.400629         20.94
     1.399340          0.17
     1.398083          0.71
     1.397280          0.53
     1.396996          1.00
     1.395491         13.33
     1.394842          0.42
     1.394685          3.93
     1.393771          2.26
     1.393652          0.42
     1.393031          0.52
     1.392347          0.01
     1.391379          0.53
     1.390453         29.65
     1.390105          0.16
     1.387217          2.77
     1.386949          0.33
     1.386682          6.54
     1.379174          3.02
     1.378140          0.32
     1.375784         12.68
     1.370381          3.67
     1.367813          0.01
     1.367104          1.54
     1.366592          0.42
     1.365415          0.93
     1.364900          3.95
     1.364599          0.85
     1.364562          1.76
     1.363006          2.46
     1.362234          3.47
     1.359800          0.97
     1.359786         10.48
     1.359288          0.35
     1.358553          0.14
     1.358406          2.18
     1.357534          0.83
     1.352938          0.33
     1.352108          0.60
     1.351803          0.68
     1.350376          3.70
     1.350044          0.93
     1.349918          0.48
     1.349616          9.15
     1.347908          0.05
     1.347542          0.17
     1.344886         16.72
     1.341864          0.02
     1.340989          3.12
     1.339554          0.00
     1.339011          0.20
     1.337155          0.15
     1.336972          0.56
     1.335438          0.28
     1.333892          0.00
     1.333713          0.00
     1.333496          0.32
     1.333433          5.85
     1.331653          1.81
     1.329300          1.08
     1.328741         10.48
     1.328120          0.01
     1.327185         14.67
     1.326911          0.02
     1.326850          0.12
     1.325615          0.01
     1.325457          0.96
     1.323753          2.68
     1.322837          0.16
     1.322493          0.00
     1.315870          2.04
     1.306038          0.12
     1.305990          0.01
     1.305927          6.22
     1.305355          3.43
     1.303977          1.02
     1.302389          1.93
     1.301784          8.13
     1.301737          0.00
     1.300621          0.11
     1.300361          0.05
     1.299019          0.06
     1.297846          0.07
     1.297473          0.00
     1.297105          7.49
     1.296862          0.01
     1.296117          1.67
     1.295471          0.00
     1.294578          1.27
     1.293677          8.48
     1.293025          2.10
     1.292956          6.53
     1.292733          0.04
     1.292187          2.80
     1.291970          7.54
     1.291786          0.98
     1.291677          6.44
     1.291069          0.28
     1.290705          0.38
     1.289624          0.81
     1.289612          0.06
     1.289333          6.31
     1.289016          0.24
     1.288780          4.58
     1.288593          0.45
     1.288578          0.49
     1.287866          0.26
     1.285754          0.55
     1.284706          0.33
     1.284612          2.88
     1.283412          4.58
     1.283156          0.06
     1.283064          1.27
     1.280846          0.42
     1.280796          1.46
     1.280202          1.09
     1.279885          0.40
     1.279145          0.00
     1.278629          5.63
     1.278271          3.99
     1.278020          0.32
     1.277886          2.57
     1.277443          7.30
     1.276968          3.15
##############################################################################
###                            Comments                                    ###
##############################################################################
###   Palomo mine, Castrovirreyna Province, Huancavelica Department, Peru
###   Diffraction pattern calculated by Match!. 
###   I/Ic calculated by Match!. 
###   Space group has been derived from given symmetry operations. 
##############################################################################


