##############################################################################
###               Crystal structure data exported by Match!                ###
##############################################################################
###                           Data published by:                           ###
###                                                                        ###
###               COD (Crystallography Open Database)
##############################################################################
data_9013730
_citation_journal_full    'American Mineralogist'
_citation_journal_volume  '95'
_citation_page_first  '348'
_citation_page_last   '361'
_citation_year  '2010'
_citation_title  'Factors responsible for crystal-chemical variations in the solid solutionsfrom illite to aluminoceladonite and from glauconite to celadoniteLocality: Ordovician sandstone, LatviaSample Name: PILT'
loop_
_publ_author_name
  'Drits V. A.'
  'Zviagina B. B.'
  'McCarty D. K.'
  'Salyn A. L.'
_chemical_formula_sum  'Al2 H2 K O12 Si4'
_chemical_name_mineral  'Glauconite'
_symmetry_space_group_name_H-M 'C 1 2/m 1'
_space_group_IT_number 12
_space_group_crystal_system 'monoclinic'
loop_
_symmetry_equiv_pos_as_xyz
   'x, y, z'
   'x+0.5, y+0.5, z'
   '-x, y, -z'
   '-x+0.5, y+0.5, -z'
   '-x, -y, -z'
   '-x+0.5, -y+0.5, -z'
   'x, -y, z'
   'x+0.5, -y+0.5, z'
_cell_length_a        5.24600
_cell_length_b        9.07600
_cell_length_c       10.18400
_cell_angle_alpha    90.0000
_cell_angle_beta    101.1000
_cell_angle_gamma    90.0000
loop_
_atom_site_label
_atom_site_fract_x
_atom_site_fract_y
_atom_site_fract_z
_atom_site_occupancy
_atom_site_B_iso_or_equiv
k      0.000   0.500   0.500    1.00000    1.000
al      0.500   0.167   0.000    1.00000    1.000
si      0.422   0.331   0.273    1.00000    1.000
o      0.360   0.322   0.111    1.00000    1.000
o      0.464   0.500   0.328    1.00000    1.000
o      0.690   0.245   0.335    1.00000    1.000
o      0.412   0.000   0.109    1.00000    1.000
_cell_measurement_wavelength    1.541874
_cell_measurement_radiation   'x-rays'
_exptl_crystal_density_diffrn    2.788000
loop_
_pd_peak_d_spacing
_pd_peak_intensity
     9.993485        240.59
     4.996742        195.33
     4.538000        464.48
     4.477738          3.58
     4.368377        323.66
     4.131943        186.10
     3.852640         33.98
     3.652506       1000.00
     3.359351        358.02
     3.331162        315.52
     3.087593        843.19
     2.916820        277.43
     2.685335        375.24
     2.617258        147.54
     2.608263        352.03
     2.586115        409.25
     2.573931        227.34
     2.498371         24.94
     2.491801         28.57
     2.481107         46.98
     2.465637         60.33
     2.410680        307.29
     2.384179        186.17
     2.356071         46.65
     2.269000         42.25
     2.267208         90.35
     2.257902          6.87
     2.238869         86.44
     2.224891         12.63
     2.212684        120.59
     2.188609          0.58
     2.184188         42.32
     2.158378        202.56
     2.127510        101.13
     2.110616         93.16
     2.065971          3.90
     2.041148          0.27
     2.021502         30.12
     1.998697        187.68
     1.994928         47.99
     1.962807        109.37
     1.950767         14.83
     1.926320          9.23
     1.899125          6.13
     1.875298          0.26
     1.870007          0.42
     1.829143          1.27
     1.826253         52.46
     1.750293         28.30
     1.728964          1.51
     1.722244         29.49
     1.721010          2.29
     1.716714         33.07
     1.714428          1.65
     1.711893          1.95
     1.705585         20.57
     1.702076          1.86
     1.697841          9.37
     1.686083         16.45
     1.679676         40.87
     1.677675          0.01
     1.669620         12.58
     1.666906        244.70
     1.665581          8.84
     1.654221          7.92
     1.652243         84.16
     1.643636         46.61
     1.641715        112.94
     1.634055         60.83
     1.633036          1.97
     1.613275          8.91
     1.600487         96.13
     1.588601         77.47
     1.563849         17.46
     1.563591          2.06
     1.551988         34.00
     1.543796         10.18
     1.540111         59.71
     1.539099         31.08
     1.516646        105.50
     1.513703        227.12
     1.513215         60.01
     1.512667        116.44
     1.500718         13.12
     1.499801         25.21
     1.498206          1.73
     1.495630         18.03
     1.492579         16.49
     1.484456          5.52
     1.482088         27.67
     1.470341          9.20
     1.458410          4.18
     1.456327         12.22
     1.456126          1.45
     1.449256          3.15
     1.447779          0.08
     1.443072          7.31
     1.441363          0.15
     1.431317          9.21
     1.428843          1.78
     1.427641         11.49
     1.401332          1.49
     1.387727          1.44
     1.385874          4.70
     1.380563         66.09
     1.377314          0.09
     1.371825          0.05
     1.368664          0.03
     1.364883         61.06
     1.361839         21.91
     1.345504        109.37
     1.343362          5.50
     1.342668         26.68
     1.330071          6.22
     1.315899          0.03
     1.309663         75.00
     1.308742         39.28
     1.308629         40.41
     1.307172         16.28
     1.307044         71.64
     1.305287         34.36
     1.304131         92.05
     1.298695          2.39
     1.293973         37.62
     1.293058          0.00
     1.289679         10.35
     1.289084          0.31
     1.286965          0.02
     1.286643         19.14
     1.284213         36.50
     1.277279         45.22
     1.274292          0.30
     1.260904          2.68
     1.259212         16.54
     1.259049         11.67
     1.257492          0.00
     1.257392         13.96
     1.257305          0.29
     1.256711         29.36
     1.254800          2.32
     1.251707          5.20
     1.249186         19.90
     1.246973          6.45
     1.246389         15.23
     1.245901          0.21
     1.240553         25.07
     1.240269          0.34
     1.238138          5.39
     1.237851         24.42
     1.233917          2.86
     1.233096         19.22
     1.225480         21.54
     1.221376          7.31
     1.219855          2.00
     1.217502         16.95
     1.216641          2.76
     1.208354         29.34
     1.208051          0.09
     1.206170         19.54
     1.205952         27.83
     1.205340          0.03
     1.204388          0.52
     1.203837          6.71
     1.201880         21.64
     1.201443          4.14
     1.196170         14.18
     1.195017         13.07
     1.192089          0.54
     1.191492          3.03
     1.183863          9.37
     1.183162          2.51
     1.178036          4.24
     1.176066          5.61
     1.172057          4.54
     1.171961         19.19
     1.169585          6.45
     1.158448          1.17
     1.157510          1.46
     1.157322         17.70
     1.154250          2.45
     1.152972          3.36
     1.152431          6.91
     1.144930          0.69
     1.144481          6.39
     1.134500          0.05
     1.133677         11.18
     1.133604          0.00
     1.132657          6.65
     1.131430          0.57
     1.130584          1.49
     1.129605          1.58
     1.128951         35.22
     1.127259         11.58
     1.122554          1.18
     1.121599          2.25
     1.121219          1.04
     1.119784          1.86
     1.119435          2.03
     1.119222         11.20
     1.117622          0.21
     1.112445         55.79
     1.110387          0.89
     1.110105          1.39
     1.109085         20.88
     1.106342          1.54
     1.102480          0.22
     1.099449          2.94
     1.096155          0.55
     1.095558          0.15
     1.094305          1.62
     1.092423          3.43
     1.092094          0.16
     1.087543          1.80
     1.086605          5.99
     1.086120          9.30
     1.079189         49.00
     1.078569          1.13
     1.074425          1.04
     1.073926          0.26
     1.072816          0.32
     1.068536          2.60
     1.063755         21.18
     1.063432          1.17
     1.063088          0.39
     1.059588         30.44
     1.058136          0.00
     1.055308          1.32
     1.054893          0.16
     1.048239         13.02
     1.047406         15.25
     1.046478          1.17
     1.042383          0.07
     1.042161          0.80
     1.041426          1.71
     1.041334          3.27
     1.040915          1.96
     1.038252         18.02
     1.038132          0.42
     1.038007          0.14
     1.037905          0.28
     1.037169          0.44
     1.035681          0.66
     1.035079          2.28
     1.035065          0.56
     1.034471          2.08
     1.032986          3.26
     1.032520          1.28
     1.031092          5.03
     1.029198         16.64
     1.026981          1.85
     1.024433         12.92
     1.023011          6.15
     1.022100          6.08
     1.020574          8.06
     1.020233          0.03
     1.017427         17.53
     1.016955          2.82
     1.013729         14.43
     1.013348         12.66
     1.012047          3.21
     1.011923          0.33
     1.011220          0.54
     1.010751          0.01
##############################################################################
###                            Comments                                    ###
##############################################################################
###   Diffraction pattern calculated by Match!. 
###   I/Ic calculated by Match!. 
###   Space group has been derived from given symmetry operations. 
##############################################################################


