##############################################################################
###               Crystal structure data exported by Match!                ###
##############################################################################
###                           Data published by:                           ###
###                                                                        ###
###               COD (Crystallography Open Database)
##############################################################################
data_9006537
_citation_journal_full    'Physics and Chemistry of Minerals'
_citation_journal_volume  '25'
_citation_page_first  '130'
_citation_page_last   '137'
_citation_year  '1998'
_citation_title  'Pressure dependence of hydrogen bonding in metal deuteroxides: a neutron powder diffraction study of Mn(OD)2 and beta-Co(OD)2. Sample: P = 3.3 GPa'
loop_
_publ_author_name
  'Parise J. B.'
  'Theroux B.'
  'Li R.'
  'Loveday J. S.'
  'Marshall W. G.'
  'Klotz S.'
_chemical_formula_sum  'Co D2 O2'
_symmetry_space_group_name_H-M 'P -3 m 1'
_space_group_IT_number 164
_space_group_crystal_system 'trigonal (hexagonal axes)'
loop_
_symmetry_equiv_pos_as_xyz
   'x, y, z'
   '-y, x-y, z'
   '-x+y, -x, z'
   'x-y, -y, -z'
   '-x, -x+y, -z'
   'y, x, -z'
   '-x, -y, -z'
   'y, -x+y, -z'
   'x-y, x, -z'
   '-x+y, y, z'
   'x, x-y, z'
   '-y, -x, z'
_cell_length_a        3.13900
_cell_length_b        3.13900
_cell_length_c        4.48300
_cell_angle_alpha    90.0000
_cell_angle_beta     90.0000
_cell_angle_gamma   120.0000
loop_
_atom_site_label
_atom_site_fract_x
_atom_site_fract_y
_atom_site_fract_z
_atom_site_occupancy
_atom_site_B_iso_or_equiv
co      0.000   0.000   0.000    1.00000    0.631
o      0.333   0.667   0.234    1.00000    0.708
h      0.374   -0.374   0.446    0.33330    0.148
_cell_measurement_wavelength    1.541874
_cell_measurement_radiation   'x-rays'
_cell_measurement_pressure       3300000.000000
_exptl_crystal_density_diffrn    4.121000
loop_
_pd_peak_d_spacing
_pd_peak_intensity
     4.483000        831.26
     2.718454        326.81
     2.324475       1000.00
     2.241500         35.28
     1.729415        444.84
     1.569500        226.88
     1.494333         20.76
     1.481339        171.50
     1.359227         35.58
     1.309525        125.07
     1.300753        108.30
     1.285663         35.51
     1.162237         88.65
     1.120750         17.06
     1.082251         37.77
     1.036147         30.28
     1.027479         27.41
##############################################################################
###                            Comments                                    ###
##############################################################################
###   Diffraction pattern calculated by Match!. 
###   I/Ic calculated by Match!. 
##############################################################################


