##############################################################################
###               Crystal structure data exported by Match!                ###
##############################################################################
###                           Data published by:                           ###
###                                                                        ###
###               COD (Crystallography Open Database)
##############################################################################
data_2003830
_citation_journal_full    'Acta Crystallographica Section C'
_citation_journal_volume  '51(8)'
_citation_page_first  '1483'
_citation_page_last   '1485'
_citation_year  '1995'
_citation_title  'Synthetic Copper Monophosphate'
loop_
_publ_author_name
  'Yamashita A.'
  'Kawahara A.'
  'Sasaki N.'
_chemical_formula_sum  'Cu9 H2 O20 P4'
_symmetry_space_group_name_H-M 'P -1'
_space_group_IT_number 2
_space_group_crystal_system 'triclinic'
loop_
_symmetry_equiv_pos_as_xyz
   'x, y, z'
   '-x, -y, -z'
_cell_length_a        8.16600
_cell_length_b        8.84500
_cell_length_c        5.93400
_cell_angle_alpha   102.5400
_cell_angle_beta     94.3700
_cell_angle_gamma   113.5700
_cell_formula_units_Z 1
loop_
_atom_site_label
_atom_site_fract_x
_atom_site_fract_y
_atom_site_fract_z
_atom_site_occupancy
_atom_site_B_iso_or_equiv
cu      0.000   0.000   0.000    1.00000    1.030
cu      0.398   0.054   0.180    1.00000    1.110
cu      0.324   0.358   0.028    1.00000    1.179
cu      0.178   0.287   0.435    1.00000    1.010
cu      0.217   0.679   0.318    1.00000    1.060
p      0.753   0.406   0.199    1.00000    1.020
p      0.728   0.971   0.338    1.00000    0.967
o      0.169   0.434   0.220    1.00000    1.270
o      0.242   0.167   0.164    1.00000    1.100
o      0.567   0.945   0.154    1.00000    1.189
o      0.673   0.296   0.367    1.00000    1.250
o      0.911   0.079   0.275    1.00000    1.379
o      0.713   0.792   0.334    1.00000    1.340
o      0.906   0.581   0.332    1.00000    1.149
o      0.283   0.934   0.415    1.00000    1.209
o      0.597   0.439   0.086    1.00000    1.419
o      0.823   0.313   0.009    1.00000    1.310
h      0.053   0.404   0.145    1.00000    1.000
_cell_measurement_wavelength    1.541874
_cell_measurement_radiation   'x-rays'
_cell_measurement_temperature    297.000000
_exptl_crystal_density_diffrn    4.480000
_exptl_crystal_colour            'emerald green'
loop_
_pd_peak_d_spacing
_pd_peak_intensity
     7.803906         36.11
     7.359444          9.79
     7.073764         30.64
     5.695484        125.59
     5.340860         56.05
     4.963093          0.61
     4.597246        112.07
     4.481912        273.00
     4.291057        165.40
     4.289579          1.64
     4.152825        470.11
     4.101737         21.56
     4.091854          6.32
     4.066382        164.93
     3.901953         25.62
     3.793575        203.69
     3.723494        402.61
     3.679722       1000.00
     3.536882        184.47
     3.407862        239.73
     3.384616        172.70
     3.219103         84.93
     3.148751         52.96
     3.138920         44.33
     3.104255        577.61
     2.992161          0.75
     2.962510         96.90
     2.944369         17.46
     2.914079         14.45
     2.885900        246.18
     2.876120        114.28
     2.870999        230.66
     2.868307          6.90
     2.862190         91.34
     2.847742          2.33
     2.835400          8.68
     2.834120         12.61
     2.759485         36.83
     2.749888        418.52
     2.708629         78.95
     2.692944        160.38
     2.670430         72.54
     2.653376        105.55
     2.649452         52.72
     2.636275         27.20
     2.614592        380.02
     2.601302        727.08
     2.579512        767.29
     2.541390          0.46
     2.506581         12.40
     2.481546         47.96
     2.468488        109.21
     2.453148          4.72
     2.418846        138.63
     2.417532        351.77
     2.414125        112.89
     2.401516         27.58
     2.390551         45.63
     2.371272         48.24
     2.357921         87.96
     2.355366        157.90
     2.353911        426.77
     2.342406         41.14
     2.340103         48.60
     2.329837         55.20
     2.305178         48.25
     2.299590          7.08
     2.298623         40.28
     2.269329          0.64
     2.255878         23.01
     2.247624        262.06
     2.240956        185.38
     2.234949        127.85
     2.187233          0.49
     2.177310          0.68
     2.170071         29.41
     2.157355         13.57
     2.155755         11.36
     2.147491         29.71
     2.145780         12.71
     2.145528        159.01
     2.144789         26.51
     2.132773         15.63
     2.126311         74.54
     2.124343         12.88
     2.117244        107.78
     2.097556          5.17
     2.076413         83.07
     2.069801         98.19
     2.052745         79.45
     2.050868          9.31
     2.045927          3.09
     2.033191         82.17
     2.025601          0.69
     2.021182         36.41
     1.999570         21.65
     1.991105          5.34
     1.971437          2.96
     1.967777         11.22
     1.959347         96.18
     1.952404          9.64
     1.952292         52.12
     1.950977          0.17
     1.944737          6.90
     1.944122         91.09
     1.943435         49.45
     1.927468         82.20
     1.925107         80.66
     1.924552        101.29
     1.918385          1.29
     1.910217          9.83
     1.898495         32.75
     1.896787         60.40
     1.891217         17.03
     1.882465          7.02
     1.879361         84.15
     1.874050         53.92
     1.866820         15.52
     1.866527         46.26
     1.863729         14.08
     1.861747          2.56
     1.860209          3.58
     1.852278         86.17
     1.850060         30.50
     1.849046         31.35
     1.846032          0.06
     1.844529         10.91
     1.839861          2.34
     1.836842         30.75
     1.834835         29.34
     1.828368          3.03
     1.823878          0.37
     1.820869          0.68
     1.818072         17.50
     1.815482         43.41
     1.814839          0.44
     1.808786          9.81
     1.802102          1.32
     1.799583          3.28
     1.793087          0.00
     1.784145          2.80
     1.780714          1.70
     1.780287          4.24
     1.768441          2.36
     1.764345         64.65
     1.762289          0.63
     1.761359          2.83
     1.760541          0.00
     1.756406         15.39
     1.750299         46.60
     1.745924          4.76
     1.739776          0.64
     1.739620         56.37
     1.732809          7.16
     1.726786         25.40
     1.724120        100.55
     1.723633          0.69
     1.713023          1.72
     1.710858          0.15
     1.709187          7.69
     1.705907          0.02
     1.704408         12.81
     1.703931          1.26
     1.692367          9.17
     1.692308         31.02
     1.692294          0.42
     1.687247          4.35
     1.685168          0.17
     1.684081          0.15
     1.682652         71.60
     1.681884         44.50
     1.679611          5.52
     1.677677         53.78
     1.664320         24.81
     1.656187         93.21
     1.654364          2.52
     1.640826          0.12
     1.640557         48.58
     1.636782        115.09
     1.635898          7.53
     1.625905         34.87
     1.625712         20.00
     1.624708          0.61
     1.624663          0.16
     1.621408         75.18
     1.613475          3.24
     1.609799         11.23
     1.609551         39.15
     1.601523         44.29
     1.601448          2.03
     1.601248          4.53
     1.598593         97.12
     1.593366          3.79
     1.589481         11.51
     1.579736         23.78
     1.579545         17.66
     1.576158         28.45
     1.575127         28.99
     1.574376         19.06
     1.574338         27.87
     1.574247          3.81
     1.569460         14.87
     1.567943         55.51
     1.565671         16.14
     1.562193          5.77
     1.562092         48.11
     1.560781          1.45
     1.558115          0.03
     1.556823         25.19
     1.552666          7.43
     1.552127          5.38
     1.550035         30.35
     1.549930          2.80
     1.545282         52.23
     1.545075         50.89
     1.542221        193.63
     1.541716         74.48
     1.536446          0.23
     1.534327         29.07
     1.533917          4.43
     1.533865         62.25
     1.532415          0.21
     1.531533          4.31
     1.531054         12.11
     1.530084          0.16
     1.528201        128.87
     1.526651          3.69
     1.511757         25.13
     1.497615         56.20
     1.497308         46.17
     1.496080         11.90
     1.495197          4.06
     1.493971          2.98
     1.492467          2.57
     1.492004          0.64
     1.487631         11.91
     1.487485         12.85
     1.481255         41.50
     1.479228          1.36
     1.475244         17.57
     1.475199         10.64
     1.472981         43.30
     1.472396          0.71
     1.472185          2.00
     1.471889         21.98
     1.471332        106.58
     1.470506         18.28
     1.468983          0.76
     1.467634          2.91
     1.467037          0.13
     1.466555         13.80
     1.465501         22.71
     1.462950          8.52
     1.460927         20.08
     1.457039          2.71
     1.454195         41.97
     1.451131         41.33
     1.450730          1.73
     1.448015          0.07
     1.445035          0.01
     1.442950         15.47
     1.440194         99.93
     1.439440         40.84
     1.438060          0.01
     1.436155         17.78
     1.435500          0.22
     1.434154         63.84
     1.434066         12.19
     1.433592          1.97
     1.432262         30.12
     1.431247          1.04
     1.431095         26.71
     1.430352         19.44
     1.429860          6.79
     1.427679         25.44
     1.423871          0.60
     1.421716          4.24
     1.421338        120.90
     1.420765          7.19
     1.417700          0.60
     1.417113          2.30
     1.417060          0.06
     1.415292         29.51
     1.414753          2.82
     1.410997          3.03
     1.409599          0.92
     1.409347          3.86
     1.407064          2.78
     1.403062          1.88
     1.396230         99.53
     1.393997          2.83
     1.389016         22.08
     1.386491         17.21
     1.384849          3.08
     1.384275         16.17
     1.382782          3.86
     1.382608         10.66
     1.379743          0.08
     1.378782          5.37
     1.377233          0.22
     1.376641         10.42
     1.374944         29.88
     1.369827          0.47
     1.367472          0.00
     1.367246         53.80
     1.366050          3.65
     1.365299         21.64
     1.363951         44.19
     1.362019          2.11
     1.361127          0.33
     1.358918          8.87
     1.357997         24.91
     1.355461          8.67
     1.354315          2.34
     1.353979          0.67
     1.353567         38.60
     1.353027          1.29
     1.352737          9.34
     1.351788         24.79
     1.350945          4.61
     1.349937          0.24
     1.349862          2.86
     1.347745          2.12
     1.346472          0.92
     1.345350         17.13
     1.345052          8.45
     1.342845         43.09
     1.342769         16.27
     1.342209          3.64
     1.342017         90.06
     1.338193          9.68
     1.336878         47.32
     1.336035          4.90
     1.335215         18.83
     1.331960          2.87
     1.330983         10.24
     1.328024          0.53
     1.327517         28.32
     1.326688         37.28
     1.324726          0.75
     1.324223          8.81
     1.322250          0.82
     1.321319          0.54
     1.319329          2.67
     1.318138          0.01
     1.318106          5.75
     1.314197          3.74
     1.312766         48.70
     1.311595          0.07
     1.311415          4.13
     1.310469          1.38
     1.310172          0.06
     1.309001          0.34
     1.307296          4.10
     1.306514          2.64
     1.305075          7.02
     1.304143          1.28
     1.303623          0.29
     1.303360         11.10
     1.303043         20.95
     1.302577          0.93
     1.301114          5.47
     1.300651          1.36
     1.300009         13.47
     1.295758          1.81
     1.294911          2.79
     1.293952          2.61
     1.293757         44.82
     1.292974          0.21
     1.292653          0.39
     1.291023          3.95
     1.289756         38.33
     1.288975          3.69
     1.288211          1.92
     1.286784         50.90
     1.286647          1.67
     1.286501          1.99
     1.286397         10.55
     1.284856          2.60
     1.283678          6.01
     1.283634         11.07
     1.282815         10.57
     1.281814         12.01
     1.280174          0.59
     1.280017         14.00
     1.277613         13.53
     1.274665         38.77
     1.270779         10.43
     1.270695          1.26
     1.270464          0.41
     1.267980          0.12
     1.265739          0.21
     1.264525          4.89
     1.263336         32.36
     1.261663          0.92
     1.260986          8.34
     1.260423          5.00
     1.258740          3.30
     1.257152          4.85
     1.256552          0.41
     1.254839         29.80
     1.253518          3.50
     1.253291          0.60
     1.251291          0.12
     1.250994          6.14
     1.250817         11.52
     1.250754          8.77
     1.247565          4.57
     1.247430          0.01
     1.246746         17.00
     1.242288          0.14
     1.241165          5.97
     1.240773          2.45
     1.240099          7.94
     1.237849          1.89
     1.236216          2.40
     1.235471          4.96
     1.234929          0.18
     1.234244          0.15
     1.233463          1.60
     1.232894          5.08
     1.232882          1.10
     1.232207          0.53
     1.230976          1.69
     1.230360          0.13
     1.228583          0.34
     1.228414          2.79
     1.228157          0.64
     1.228030          0.18
     1.227330          0.02
     1.226574          0.03
     1.225130          8.44
     1.223669          4.26
     1.221959          1.57
     1.221825          4.73
     1.220029          0.04
     1.219017          2.28
     1.216466          2.59
     1.216035          9.77
     1.215535          6.10
     1.215195          3.80
     1.210158          6.19
     1.209423         15.22
     1.209106          0.12
     1.208766         13.69
     1.207903          2.02
     1.207063          2.56
     1.206964          2.80
     1.206750          2.93
     1.205694          1.27
     1.204916          2.94
     1.203275          0.60
     1.202714          8.64
     1.200758          6.24
     1.199439          0.61
     1.198096          0.41
     1.196274         14.81
     1.196101          1.52
     1.195275          0.62
     1.193340          0.97
     1.190957          1.57
     1.189675          0.00
     1.189339          0.62
     1.185636          0.00
     1.184292          5.36
     1.183995          6.89
     1.183068          1.99
     1.182572          0.14
     1.181758          3.96
     1.180056         10.42
     1.179529         12.50
     1.179120          0.50
     1.178961          5.48
     1.178791          2.30
     1.177683          1.52
     1.176956         22.18
     1.175128          5.39
     1.174751          1.32
     1.173505         15.22
     1.173390          0.37
     1.171203         11.52
     1.170974          0.45
     1.170051          3.12
     1.169676         13.34
     1.169113          1.76
     1.167474          2.65
     1.167255          5.11
     1.166223          0.31
     1.165937          1.66
     1.164919          9.12
     1.164866          3.01
     1.162885          2.35
     1.162781          0.52
     1.160510          0.15
     1.160229          0.07
     1.159761          0.20
     1.159729          6.00
     1.159499         18.60
     1.159389          0.33
     1.158791         10.28
##############################################################################
###                            Comments                                    ###
##############################################################################
###   hydrothermal synthesis
###   Diffraction pattern calculated by Match!. 
###   I/Ic calculated by Match!. 
##############################################################################


