##############################################################################
###               Crystal structure data exported by Match!                ###
##############################################################################
###                           Data published by:                           ###
###                                                                        ###
###               COD (Crystallography Open Database)
##############################################################################
data_4124055
_citation_journal_full    'Journal of the American Chemical Society'
_citation_journal_volume  '126'
_citation_page_first  '9769'
_citation_page_last   '9775'
_citation_year  '2004'
_citation_title  'Chemical evaluation of hypothetical uninodal zeolites'
loop_
_publ_author_name
  'Foster M.D.'
  'Friedrichs O.D.'
  'Bell R.G.'
  'Paz F.A.A.'
  'Klinowski J.'
_chemical_formula_sum  'O2 Si'
_chemical_name_common  'Silica'
_symmetry_space_group_name_H-M 'R -3 c'
_space_group_IT_number 167
_space_group_crystal_system 'trigonal (hexagonal axes)'
loop_
_symmetry_equiv_pos_as_xyz
   'x, y, z'
   'x+0.66667, y+0.33333, z+0.33333'
   'x+0.33333, y+0.66667, z+0.66667'
   '-y, x-y, z'
   '-y+0.66667, x-y+0.33333, z+0.33333'
   '-y+0.33333, x-y+0.66667, z+0.66667'
   '-x+y, -x, z'
   '-x+y+0.66667, -x+0.33333, z+0.33333'
   '-x+y+0.33333, -x+0.66667, z+0.66667'
   'x-y, -y, -z+0.5'
   'x-y+0.66667, -y+0.33333, -z+0.83333'
   'x-y+0.33333, -y+0.66667, -z+0.16667'
   '-x, -x+y, -z+0.5'
   '-x+0.66667, -x+y+0.33333, -z+0.83333'
   '-x+0.33333, -x+y+0.66667, -z+0.16667'
   'y, x, -z+0.5'
   'y+0.66667, x+0.33333, -z+0.83333'
   'y+0.33333, x+0.66667, -z+0.16667'
   '-x, -y, -z'
   '-x+0.66667, -y+0.33333, -z+0.33333'
   '-x+0.33333, -y+0.66667, -z+0.66667'
   'y, -x+y, -z'
   'y+0.66667, -x+y+0.33333, -z+0.33333'
   'y+0.33333, -x+y+0.66667, -z+0.66667'
   'x-y, x, -z'
   'x-y+0.66667, x+0.33333, -z+0.33333'
   'x-y+0.33333, x+0.66667, -z+0.66667'
   '-x+y, y, z+0.5'
   '-x+y+0.66667, y+0.33333, z+0.83333'
   '-x+y+0.33333, y+0.66667, z+0.16667'
   'x, x-y, z+0.5'
   'x+0.66667, x-y+0.33333, z+0.83333'
   'x+0.33333, x-y+0.66667, z+0.16667'
   '-y, -x, z+0.5'
   '-y+0.66667, -x+0.33333, z+0.83333'
   '-y+0.33333, -x+0.66667, z+0.16667'
_cell_length_a        7.42831
_cell_length_b        7.42831
_cell_length_c       29.99637
_cell_angle_alpha    90.0000
_cell_angle_beta     90.0000
_cell_angle_gamma   120.0000
_cell_formula_units_Z 36
loop_
_atom_site_label
_atom_site_fract_x
_atom_site_fract_y
_atom_site_fract_z
_atom_site_occupancy
_atom_site_B_iso_or_equiv
o      0.667   0.833   0.333    1.00000    1.000
o      0.847   0.769   0.391    1.00000    1.000
si      0.743   0.911   0.383    1.00000    1.000
o      0.667   0.109   0.083    1.00000    1.000
_cell_measurement_wavelength    1.541874
_cell_measurement_radiation   'x-rays'
_exptl_crystal_density_diffrn    2.505000
loop_
_pd_peak_d_spacing
_pd_peak_intensity
     6.290077          0.00
     5.912198        143.07
     4.999395        291.73
     4.882668       1000.00
     4.387487          0.00
     3.714155        166.85
     3.566404          0.00
     3.481707        124.84
     3.239458        303.04
     3.198218          0.00
     3.145039        254.03
     2.981424          2.01
     2.956099        259.23
     2.834804          0.00
     2.718622         40.06
     2.572477          0.00
     2.510690          0.00
     2.499698         23.86
     2.480602          1.38
     2.441334         18.28
     2.423536         25.85
     2.400149         28.43
     2.312943         42.89
     2.253438         99.85
     2.193744         18.70
     2.171930          0.00
     2.144368         75.76
     2.114767          0.15
     2.096692          0.00
     2.080037          0.00
     2.073774          0.27
     2.040084        137.54
     2.032815         69.66
     1.970733         28.47
     1.888871          0.74
     1.874893          0.00
     1.857077         20.37
     1.825852          3.56
     1.814822         25.07
     1.803361          0.00
     1.799899          9.06
     1.783202          6.55
     1.781074         23.17
     1.771730          3.83
     1.760763          0.48
     1.740853         13.90
     1.735769          0.72
     1.710191         31.64
     1.701645          0.00
     1.673732          5.41
     1.666465         40.35
     1.647149         12.29
     1.627556         10.54
     1.622250          0.00
     1.619729          0.53
     1.611117          1.10
     1.607529         63.96
     1.605970          0.00
     1.599109          3.42
     1.572519         13.05
     1.553425          0.00
     1.547012          0.00
     1.533456          3.06
     1.533260          0.00
     1.520436          4.87
     1.505723          0.00
     1.493034          0.94
     1.490712          0.46
     1.484691         25.75
     1.478050          3.46
     1.474072         15.72
     1.468762          3.31
     1.462496          0.00
     1.460647          1.86
     1.448078         72.81
     1.433127          8.93
     1.428086          0.70
     1.417402          1.07
     1.417247          0.00
     1.411467         32.63
     1.403819          5.14
     1.395414          2.08
     1.390184         38.41
     1.385297          0.00
     1.373303         18.31
     1.371079          4.50
     1.360800          0.04
     1.359311         13.40
     1.351547         23.48
     1.333842         22.69
     1.333204          1.63
     1.324250          5.73
     1.324123         10.86
     1.319406          0.00
     1.315837         30.63
     1.297955          4.59
     1.293742         67.07
     1.292462          0.00
     1.286238          0.00
     1.285439          0.00
     1.281913          9.73
     1.278188          0.00
     1.276507          2.52
     1.268092          3.31
     1.258015          0.00
     1.255345         31.97
     1.254602         12.09
     1.249849          2.45
     1.243288         19.39
     1.240301         11.57
     1.238052          3.05
     1.232275          0.00
     1.228669          0.34
     1.224007          2.69
     1.220667          6.67
     1.216968          0.04
     1.215420         19.61
     1.214745         10.93
     1.211768          1.40
     1.208620          0.00
     1.201751          1.38
     1.200074          0.32
     1.191523         26.05
     1.189253          0.86
     1.188801          0.00
     1.188621          0.00
     1.184577          1.22
     1.182440          0.00
     1.182350          2.24
     1.179514          0.00
     1.169584          2.72
     1.163607          0.00
     1.160569          1.56
     1.159645          5.26
     1.156472          5.13
     1.154564         13.20
     1.152006          0.11
     1.149301          2.53
     1.148976          5.60
     1.148079          0.36
     1.141945          1.61
     1.135589          1.60
     1.134570          1.10
     1.132219          1.02
     1.132064         11.77
     1.126719         11.10
     1.126641          0.00
     1.124187          0.00
     1.123731          0.00
     1.115580          2.25
     1.110389          0.95
     1.109433          8.11
     1.104184          1.72
     1.103027          1.25
     1.096872          4.55
     1.085965          0.78
     1.083358          0.00
##############################################################################
###                            Comments                                    ###
##############################################################################
###   Diffraction pattern calculated by Match!. 
###   I/Ic calculated by Match!. 
##############################################################################


