##############################################################################
###               Crystal structure data exported by Match!                ###
##############################################################################
###                           Data published by:                           ###
###                                                                        ###
###               COD (Crystallography Open Database)
##############################################################################
data_9005899
_citation_journal_full    'Physics and Chemistry of Minerals'
_citation_journal_volume  '17'
_citation_page_first  '168'
_citation_page_last   '172'
_citation_year  '1990'
_citation_title  'High-temperature X-ray diffraction study of Co3O4: transition from normal to disordered spinel Sample: RUN II, T = 1123 K'
loop_
_publ_author_name
  'Liu X.'
  'Prewitt C. T.'
_chemical_formula_sum  'Co3 O4'
_symmetry_space_group_name_H-M 'F d -3 m'
_space_group_IT_number 227
_space_group_crystal_system 'cubic'
loop_
_symmetry_equiv_pos_as_xyz
   'x, y, z'
   'x+0.5, y+0.5, z'
   'x+0.5, y, z+0.5'
   'x, y+0.5, z+0.5'
   '-y, x+0.25, z+0.25'
   '-y+0.5, x+0.75, z+0.25'
   '-y+0.5, x+0.25, z+0.75'
   '-y, x+0.75, z+0.75'
   '-x+0.25, -y+0.25, z'
   '-x+0.75, -y+0.75, z'
   '-x+0.75, -y+0.25, z+0.5'
   '-x+0.25, -y+0.75, z+0.5'
   'y+0.25, -x, z+0.25'
   'y+0.75, -x+0.5, z+0.25'
   'y+0.75, -x, z+0.75'
   'y+0.25, -x+0.5, z+0.75'
   'x+0.25, -z, y+0.25'
   'x+0.75, -z+0.5, y+0.25'
   'x+0.75, -z, y+0.75'
   'x+0.25, -z+0.5, y+0.75'
   'x, -y+0.25, -z+0.25'
   'x+0.5, -y+0.75, -z+0.25'
   'x+0.5, -y+0.25, -z+0.75'
   'x, -y+0.75, -z+0.75'
   'x+0.25, z+0.25, -y'
   'x+0.75, z+0.75, -y'
   'x+0.75, z+0.25, -y+0.5'
   'x+0.25, z+0.75, -y+0.5'
   'z+0.25, y+0.25, -x'
   'z+0.75, y+0.75, -x'
   'z+0.75, y+0.25, -x+0.5'
   'z+0.25, y+0.75, -x+0.5'
   '-x+0.25, y, -z+0.25'
   '-x+0.75, y+0.5, -z+0.25'
   '-x+0.75, y, -z+0.75'
   '-x+0.25, y+0.5, -z+0.75'
   '-z, y+0.25, x+0.25'
   '-z+0.5, y+0.75, x+0.25'
   '-z+0.5, y+0.25, x+0.75'
   '-z, y+0.75, x+0.75'
   'z, x, y'
   'z+0.5, x+0.5, y'
   'z+0.5, x, y+0.5'
   'z, x+0.5, y+0.5'
   'y, z, x'
   'y+0.5, z+0.5, x'
   'y+0.5, z, x+0.5'
   'y, z+0.5, x+0.5'
   '-y+0.25, -z+0.25, x'
   '-y+0.75, -z+0.75, x'
   '-y+0.75, -z+0.25, x+0.5'
   '-y+0.25, -z+0.75, x+0.5'
   'z, -x+0.25, -y+0.25'
   'z+0.5, -x+0.75, -y+0.25'
   'z+0.5, -x+0.25, -y+0.75'
   'z, -x+0.75, -y+0.75'
   '-y+0.25, z, -x+0.25'
   '-y+0.75, z+0.5, -x+0.25'
   '-y+0.75, z, -x+0.75'
   '-y+0.25, z+0.5, -x+0.75'
   '-z+0.25, -x+0.25, y'
   '-z+0.75, -x+0.75, y'
   '-z+0.75, -x+0.25, y+0.5'
   '-z+0.25, -x+0.75, y+0.5'
   '-z+0.25, x, -y+0.25'
   '-z+0.75, x+0.5, -y+0.25'
   '-z+0.75, x, -y+0.75'
   '-z+0.25, x+0.5, -y+0.75'
   'y, -z+0.25, -x+0.25'
   'y+0.5, -z+0.75, -x+0.25'
   'y+0.5, -z+0.25, -x+0.75'
   'y, -z+0.75, -x+0.75'
   'y+0.25, x+0.25, -z'
   'y+0.75, x+0.75, -z'
   'y+0.75, x+0.25, -z+0.5'
   'y+0.25, x+0.75, -z+0.5'
   '-y, -x, -z'
   '-y+0.5, -x+0.5, -z'
   '-y+0.5, -x, -z+0.5'
   '-y, -x+0.5, -z+0.5'
   '-x, z+0.25, y+0.25'
   '-x+0.5, z+0.75, y+0.25'
   '-x+0.5, z+0.25, y+0.75'
   '-x, z+0.75, y+0.75'
   '-x, -z, -y'
   '-x+0.5, -z+0.5, -y'
   '-x+0.5, -z, -y+0.5'
   '-x, -z+0.5, -y+0.5'
   'z+0.25, -y, x+0.25'
   'z+0.75, -y+0.5, x+0.25'
   'z+0.75, -y, x+0.75'
   'z+0.25, -y+0.5, x+0.75'
   '-z, -y, -x'
   '-z+0.5, -y+0.5, -x'
   '-z+0.5, -y, -x+0.5'
   '-z, -y+0.5, -x+0.5'
   '-x, -y, -z'
   '-x+0.5, -y+0.5, -z'
   '-x+0.5, -y, -z+0.5'
   '-x, -y+0.5, -z+0.5'
   'y, -x+0.25, -z+0.25'
   'y+0.5, -x+0.75, -z+0.25'
   'y+0.5, -x+0.25, -z+0.75'
   'y, -x+0.75, -z+0.75'
   'x+0.25, y+0.25, -z'
   'x+0.75, y+0.75, -z'
   'x+0.75, y+0.25, -z+0.5'
   'x+0.25, y+0.75, -z+0.5'
   '-y+0.25, x, -z+0.25'
   '-y+0.75, x+0.5, -z+0.25'
   '-y+0.75, x, -z+0.75'
   '-y+0.25, x+0.5, -z+0.75'
   '-x+0.25, z, -y+0.25'
   '-x+0.75, z+0.5, -y+0.25'
   '-x+0.75, z, -y+0.75'
   '-x+0.25, z+0.5, -y+0.75'
   '-x, y+0.25, z+0.25'
   '-x+0.5, y+0.75, z+0.25'
   '-x+0.5, y+0.25, z+0.75'
   '-x, y+0.75, z+0.75'
   '-x+0.25, -z+0.25, y'
   '-x+0.75, -z+0.75, y'
   '-x+0.75, -z+0.25, y+0.5'
   '-x+0.25, -z+0.75, y+0.5'
   '-z+0.25, -y+0.25, x'
   '-z+0.75, -y+0.75, x'
   '-z+0.75, -y+0.25, x+0.5'
   '-z+0.25, -y+0.75, x+0.5'
   'x+0.25, -y, z+0.25'
   'x+0.75, -y+0.5, z+0.25'
   'x+0.75, -y, z+0.75'
   'x+0.25, -y+0.5, z+0.75'
   'z, -y+0.25, -x+0.25'
   'z+0.5, -y+0.75, -x+0.25'
   'z+0.5, -y+0.25, -x+0.75'
   'z, -y+0.75, -x+0.75'
   '-z, -x, -y'
   '-z+0.5, -x+0.5, -y'
   '-z+0.5, -x, -y+0.5'
   '-z, -x+0.5, -y+0.5'
   '-y, -z, -x'
   '-y+0.5, -z+0.5, -x'
   '-y+0.5, -z, -x+0.5'
   '-y, -z+0.5, -x+0.5'
   'y+0.25, z+0.25, -x'
   'y+0.75, z+0.75, -x'
   'y+0.75, z+0.25, -x+0.5'
   'y+0.25, z+0.75, -x+0.5'
   '-z, x+0.25, y+0.25'
   '-z+0.5, x+0.75, y+0.25'
   '-z+0.5, x+0.25, y+0.75'
   '-z, x+0.75, y+0.75'
   'y+0.25, -z, x+0.25'
   'y+0.75, -z+0.5, x+0.25'
   'y+0.75, -z, x+0.75'
   'y+0.25, -z+0.5, x+0.75'
   'z+0.25, x+0.25, -y'
   'z+0.75, x+0.75, -y'
   'z+0.75, x+0.25, -y+0.5'
   'z+0.25, x+0.75, -y+0.5'
   'z+0.25, -x, y+0.25'
   'z+0.75, -x+0.5, y+0.25'
   'z+0.75, -x, y+0.75'
   'z+0.25, -x+0.5, y+0.75'
   '-y, z+0.25, x+0.25'
   '-y+0.5, z+0.75, x+0.25'
   '-y+0.5, z+0.25, x+0.75'
   '-y, z+0.75, x+0.75'
   '-y+0.25, -x+0.25, z'
   '-y+0.75, -x+0.75, z'
   '-y+0.75, -x+0.25, z+0.5'
   '-y+0.25, -x+0.75, z+0.5'
   'y, x, z'
   'y+0.5, x+0.5, z'
   'y+0.5, x, z+0.5'
   'y, x+0.5, z+0.5'
   'x, -z+0.25, -y+0.25'
   'x+0.5, -z+0.75, -y+0.25'
   'x+0.5, -z+0.25, -y+0.75'
   'x, -z+0.75, -y+0.75'
   'x, z, y'
   'x+0.5, z+0.5, y'
   'x+0.5, z, y+0.5'
   'x, z+0.5, y+0.5'
   '-z+0.25, y, -x+0.25'
   '-z+0.75, y+0.5, -x+0.25'
   '-z+0.75, y, -x+0.75'
   '-z+0.25, y+0.5, -x+0.75'
   'z, y, x'
   'z+0.5, y+0.5, x'
   'z+0.5, y, x+0.5'
   'z, y+0.5, x+0.5'
_cell_length_a        8.15460
_cell_length_b        8.15460
_cell_length_c        8.15460
_cell_angle_alpha    90.0000
_cell_angle_beta     90.0000
_cell_angle_gamma    90.0000
loop_
_atom_site_label
_atom_site_fract_x
_atom_site_fract_y
_atom_site_fract_z
_atom_site_occupancy
_atom_site_B_iso_or_equiv
co      0.125   0.125   0.125    1.00000    1.000
co      0.500   0.500   0.500    1.00000    1.000
o      0.261   0.261   0.261    1.00000    1.000
_cell_measurement_wavelength    1.541874
_cell_measurement_radiation   'x-rays'
_cell_measurement_temperature    1123.000000
_exptl_crystal_density_diffrn    5.899000
loop_
_pd_peak_d_spacing
_pd_peak_intensity
     4.708061        120.74
     2.883087        301.55
     2.458704       1000.00
     2.354030        100.42
     2.038650        186.63
     1.870794          2.48
     1.664551         88.71
     1.569354        316.77
     1.441543        369.06
     1.378379         11.96
     1.359100          0.16
     1.289355         28.87
     1.243565         77.77
     1.229352         41.78
     1.177015         21.20
     1.141872          6.77
     1.089704         35.05
     1.061639        116.91
     1.019325         43.64
     0.996243          0.01
     0.988891          0.03
     0.961029         18.94
     0.941612         77.79
     0.935397         20.68
     0.911712         28.24
     0.895084          4.08
     0.889740          0.25
     0.869283          8.50
     0.854834         79.03
     0.832275        156.78
     0.819568          3.41
     0.799624         47.80
     0.788335        199.76
     0.784677         59.58
##############################################################################
###                            Comments                                    ###
##############################################################################
###   Diffraction pattern calculated by Match!. 
###   I/Ic calculated by Match!. 
###   Space group has been derived from given symmetry operations. 
###   Ambiguous space group information in source file. 
##############################################################################


