##############################################################################
###               Crystal structure data exported by Match!                ###
##############################################################################
###                           Data published by:                           ###
###                                                                        ###
###               COD (Crystallography Open Database)
##############################################################################
data_9015696
_citation_journal_full    'Materials Science Forum'
_citation_journal_volume  '79-82'
_citation_page_first  '821'
_citation_page_last   '826'
_citation_year  '1991'
_citation_title  'Rietveld studies of the aluminium-iron substitution in synthetic goethite'
loop_
_publ_author_name
  'Hazemann J.-L.'
  'B?rar J. F.'
  'Manceau A.'
_chemical_formula_sum  'Fe O2'
_chemical_name_mineral  'Goethite'
_symmetry_space_group_name_H-M 'P b n m'
_space_group_IT_number 62
_space_group_crystal_system 'orthorhombic'
loop_
_symmetry_equiv_pos_as_xyz
   'x, y, z'
   '-x, -y, z+0.5'
   'x+0.5, -y+0.5, -z'
   '-x+0.5, y+0.5, -z+0.5'
   '-x, -y, -z'
   'x, y, -z+0.5'
   '-x+0.5, y+0.5, z'
   'x+0.5, -y+0.5, z+0.5'
_cell_length_a        4.61880
_cell_length_b        9.95280
_cell_length_c        3.02360
_cell_angle_alpha    90.0000
_cell_angle_beta     90.0000
_cell_angle_gamma    90.0000
loop_
_atom_site_label
_atom_site_fract_x
_atom_site_fract_y
_atom_site_fract_z
_atom_site_occupancy
_atom_site_B_iso_or_equiv
fe      0.047   0.855   0.250    1.00000    1.000
o      0.714   0.201   0.250    1.00000    1.000
o      0.192   0.052   0.250    1.00000    1.000
_cell_measurement_wavelength    1.541874
_cell_measurement_radiation   'x-rays'
_exptl_crystal_density_diffrn    4.198000
loop_
_pd_peak_d_spacing
_pd_peak_intensity
     4.976400        108.21
     4.189638       1000.00
     3.385353         99.87
     2.694540        391.14
     2.584025        234.04
     2.529754         42.00
     2.488200        131.86
     2.451794        608.33
     2.309400         29.84
     2.255098         91.46
     2.249633         26.39
     2.190560        136.33
     2.094819          8.40
     2.011645         37.71
     1.921285         50.54
     1.895396          4.47
     1.828023          8.56
     1.804870         97.86
     1.773932         23.57
     1.721929        317.71
     1.692677         98.27
     1.658800         27.09
     1.605943         54.97
     1.564343        208.33
     1.561171          3.77
     1.521504          5.02
     1.511800         92.32
     1.507768         41.82
     1.476983         28.51
     1.470818         37.95
     1.454315         99.48
     1.446523          4.45
     1.422051         55.75
     1.396546         40.40
     1.387176          0.35
     1.380409          9.14
     1.371977         40.17
     1.359125         20.46
     1.358899         48.48
     1.347270         17.03
     1.322632         16.41
     1.318458         60.13
     1.309236          0.53
     1.292013         24.56
     1.267841         20.06
     1.264877          9.01
     1.254784          6.94
     1.244249         21.21
     1.244100          0.65
     1.239473          0.19
     1.230630          5.43
     1.225897          2.16
     1.217836          0.06
     1.210758          0.44
     1.201441         27.15
     1.201285          0.00
     1.181890          1.54
     1.165010          2.44
     1.154700          4.05
     1.150514         19.97
     1.147006         24.23
     1.129647         10.05
     1.128451         10.03
     1.127549         34.93
     1.124817          0.82
     1.123991          7.34
     1.117366         10.60
     1.116400          1.10
     1.095280         12.12
     1.090534          4.33
     1.086039          1.72
     1.075470          3.41
     1.072434          4.32
     1.072418          2.78
     1.067575         19.28
     1.057221         14.54
     1.054231          3.31
     1.054216         19.94
     1.047409          1.68
     1.044542          8.06
     1.029797         16.31
     1.025849         25.05
     1.025836         22.72
     1.013280         25.20
     1.010634         31.22
##############################################################################
###                            Comments                                    ###
##############################################################################
###   Diffraction pattern calculated by Match!. 
###   I/Ic calculated by Match!. 
###   Space group has been derived from given symmetry operations. 
##############################################################################


