##############################################################################
###               Crystal structure data exported by Match!                ###
##############################################################################
###                           Data published by:                           ###
###                                                                        ###
###               COD (Crystallography Open Database)
##############################################################################
data_2310813
_citation_journal_full    'Acta Crystallographica (1,1948-23,1967)'
_citation_journal_volume  '22'
_citation_page_first  '808'
_citation_page_last   '812'
_citation_year  '1967'
_citation_title  'Polytype families in zinc sulfide crystals'
loop_
_publ_author_name
  'Mardix S.'
  'Alexander E.'
  'Brafman O.'
  'Steinberger I.T.'
_chemical_formula_sum  'S Zn'
_chemical_name_common  'Zinc sulfide'
_symmetry_space_group_name_H-M 'R 3 m'
_space_group_IT_number 160
_space_group_crystal_system 'trigonal (hexagonal axes)'
loop_
_symmetry_equiv_pos_as_xyz
   'x, y, z'
   'x+0.66667, y+0.33333, z+0.33333'
   'x+0.33333, y+0.66667, z+0.66667'
   '-y, x-y, z'
   '-y+0.66667, x-y+0.33333, z+0.33333'
   '-y+0.33333, x-y+0.66667, z+0.66667'
   '-x+y, -x, z'
   '-x+y+0.66667, -x+0.33333, z+0.33333'
   '-x+y+0.33333, -x+0.66667, z+0.66667'
   '-x+y, y, z'
   '-x+y+0.66667, y+0.33333, z+0.33333'
   '-x+y+0.33333, y+0.66667, z+0.66667'
   'x, x-y, z'
   'x+0.66667, x-y+0.33333, z+0.33333'
   'x+0.33333, x-y+0.66667, z+0.66667'
   '-y, -x, z'
   '-y+0.66667, -x+0.33333, z+0.33333'
   '-y+0.33333, -x+0.66667, z+0.66667'
_cell_length_a        3.82000
_cell_length_b        3.82000
_cell_length_c      150.24001
_cell_angle_alpha    90.0000
_cell_angle_beta     90.0000
_cell_angle_gamma   120.0000
_cell_formula_units_Z 48
loop_
_atom_site_label
_atom_site_fract_x
_atom_site_fract_y
_atom_site_fract_z
_atom_site_occupancy
_atom_site_B_iso_or_equiv
s      0.000   0.000   0.078    1.00000    1.000
s      0.000   0.000   0.141    1.00000    1.000
zn      0.333   0.667   0.083    1.00000    1.000
zn      0.333   0.667   0.021    1.00000    1.000
s      0.333   0.667   0.161    1.00000    1.000
s      0.000   0.000   0.203    1.00000    1.000
zn      0.000   0.000   0.250    1.00000    1.000
zn      0.667   0.333   0.208    1.00000    1.000
zn      0.667   0.333   0.271    1.00000    1.000
s      0.667   0.333   0.224    1.00000    1.000
s      0.000   0.000   0.266    1.00000    1.000
s      0.333   0.667   0.099    1.00000    1.000
s      0.667   0.333   0.120    1.00000    1.000
s      0.667   0.333   0.182    1.00000    1.000
s      0.333   0.667   0.036    1.00000    1.000
s      0.333   0.667   0.307    1.00000    1.000
zn      0.000   0.000   0.188    1.00000    1.000
s      0.333   0.667   0.245    1.00000    1.000
zn      0.000   0.000   0.000    1.00000    1.000
s      0.667   0.333   0.057    1.00000    1.000
zn      0.667   0.333   0.104    1.00000    1.000
zn      0.333   0.667   0.229    1.00000    1.000
zn      0.000   0.000   0.313    1.00000    1.000
s      0.000   0.000   0.016    1.00000    1.000
s      0.667   0.333   0.286    1.00000    1.000
zn      0.000   0.000   0.125    1.00000    1.000
zn      0.333   0.667   0.146    1.00000    1.000
zn      0.000   0.000   0.063    1.00000    1.000
zn      0.333   0.667   0.292    1.00000    1.000
zn      0.667   0.333   0.167    1.00000    1.000
zn      0.667   0.333   0.042    1.00000    1.000
s      0.000   0.000   0.328    1.00000    1.000
_cell_measurement_wavelength    1.541874
_cell_measurement_radiation   'x-rays'
_exptl_crystal_density_diffrn    4.091000
loop_
_pd_peak_d_spacing
_pd_peak_intensity
    50.080002          0.00
    25.040001          0.00
    16.693334          0.00
    12.520000          0.00
    10.016000          0.00
     8.346667          0.00
     7.154286          0.00
     6.260000          0.00
     5.564445          0.00
     5.008000          0.00
     4.552727          0.00
     4.173333          0.00
     3.852308          0.00
     3.577143          0.00
     3.338667          0.00
     3.307415          9.19
     3.305014         25.95
     3.295459         16.95
     3.288347          1.40
     3.269605         32.42
     3.258053         55.20
     3.230819         12.68
     3.215245          4.49
     3.180476        287.66
     3.161407        553.28
     3.130000        904.88
     3.120232        515.11
     3.098260        745.55
     3.051888        256.93
     3.027624         76.16
     2.977269         10.64
     2.951306         39.36
     2.898114         29.62
     2.871000          6.05
     2.816008         25.50
     2.788229         67.93
     2.732337        134.13
     2.704307         80.56
     2.648270         72.49
     2.620331         36.23
     2.564761          0.57
     2.537183          1.61
     2.482560          7.47
     2.455555          4.54
     2.402242          0.21
     2.375964          2.65
     2.324224          4.42
     2.298783          1.61
     2.248797          1.77
     1.910000       1000.00
     1.904468          0.00
     1.897619          0.00
     1.888155          0.00
     1.876191          0.00
     1.861874          0.00
     1.845368          0.00
     1.826858          0.00
     1.806538          0.00
     1.784612          0.00
     1.761282          0.00
     1.736751          0.00
     1.711217          0.00
     1.684866          0.00
     1.657876          0.00
     1.654008          0.94
     1.653708          2.71
     1.652507          1.77
     1.651608          0.15
     1.649218          3.45
     1.647729          5.93
     1.644174          1.39
     1.642110          0.50
     1.637422         32.58
     1.634803         63.57
     1.630412        639.85
     1.629026         61.09
     1.625875         89.87
     1.619064         32.12
     1.615410          9.72
     1.607622          1.42
     1.603497          5.38
     1.594801          4.27
     1.590238          0.90
     1.580704          4.00
     1.575740         10.94
     1.565442         22.59
     1.560116         13.79
     1.549130         12.62
     1.543479          6.33
     1.531882          0.10
     1.525944          0.29
     1.513812          1.34
     1.507626          0.82
     1.495033          0.04
     1.488635          0.50
     1.475653          0.86
     1.469078          0.31
     1.455776          0.35
     1.250345          0.62
     1.250215          1.76
     1.249696          1.16
     1.249307          0.10
     1.248272          2.26
     1.247626          3.88
     1.246080          0.91
     1.245181          0.33
     1.243134         21.46
     1.241986         41.90
     1.239448         40.32
     1.238058         59.42
     1.235043         21.29
     1.233418          6.44
     1.229942          0.94
     1.228091          3.56
     1.224171          2.82
     1.222104          0.59
     1.217761          2.61
     1.215487          7.12
     1.210741         14.67
     1.208272          8.98
     1.203147          8.35
     1.200494          4.24
     1.195013          0.07
     1.192188          0.20
     1.186375          0.96
     1.183391          0.60
     1.177271          0.03
     1.174139          0.38
     1.167738          0.66
     1.164471          0.25
     1.157813          0.28
     1.102739        119.13
     1.102472          0.00
     1.101671          0.00
     1.100341          0.00
     1.098486          0.00
     1.096116          0.00
     1.093239          0.00
     1.089868          0.00
     1.086018          0.00
     1.081702          0.00
     1.076940          0.00
     1.071748          0.00
     1.066148          0.00
     1.060159          0.00
     1.053802          0.00
     1.047101          0.00
     1.040077        111.78
##############################################################################
###                            Comments                                    ###
##############################################################################
###   Diffraction pattern calculated by Match!. 
###   I/Ic calculated by Match!. 
##############################################################################


