##############################################################################
###               Crystal structure data exported by Match!                ###
##############################################################################

data_9009151
_citation_journal_full    'Crystal Structures'
_citation_journal_volume  '1'
_citation_page_first  '282'
_citation_page_last   '287'
_citation_year  '1963'
_citation_title  'Second edition. Interscience Publishers, New York, New York'
loop_
_publ_author_name
  'Wyckoff R. W. G.'
_chemical_formula_sum  'Cl Cu H O'
_chemical_name_mineral  'Belloite'
_symmetry_space_group_name_H-M 'P 1 21/a 1'
_space_group_IT_number 14
_space_group_crystal_system 'monoclinic'
loop_
_symmetry_equiv_pos_as_xyz
   'x, y, z'
   '-x+0.5, y+0.5, -z'
   '-x, -y, -z'
   'x+0.5, -y+0.5, z'
_cell_length_a        5.55500
_cell_length_b        6.67100
_cell_length_c        6.12700
_cell_angle_alpha    90.0000
_cell_angle_beta    114.8800
_cell_angle_gamma    90.0000
loop_
_atom_site_label
_atom_site_fract_x
_atom_site_fract_y
_atom_site_fract_z
_atom_site_occupancy
_atom_site_B_iso_or_equiv
cu      0.254   0.117   -0.032    1.00000    1.000
o      0.155   0.349   0.123    1.00000    1.000
cl      0.322   0.410   -0.312    1.00000    1.000
_cell_measurement_wavelength    1.541874
_cell_measurement_radiation   'x-rays'
_exptl_crystal_density_diffrn    3.741000
loop_
_pd_peak_d_spacing
_pd_peak_intensity
     5.558359       1000.00
     4.270304         78.26
     4.021060          9.64
     3.947458          0.05
     3.335500         18.56
     2.860058          0.87
     2.836906         32.51
     2.781435         53.96
     2.779179         58.21
     2.775708         26.04
     2.760396        259.16
     2.756723        592.19
     2.565452          4.66
     2.562720          1.14
     2.519723        274.81
     2.448391         69.82
     2.357181          1.10
     2.298474          0.47
     2.284164        111.11
     2.243655        268.00
     2.135152          0.67
     2.133577          1.11
     2.064581         47.13
     2.034415          1.66
     2.024685         12.56
     2.010530          5.38
     2.000194        135.57
     1.994442         33.88
     1.973729          3.85
     1.949816         23.73
     1.929604         60.31
     1.915926         18.12
     1.853618         35.78
     1.852786         63.76
     1.813631          0.58
     1.793153         20.05
     1.785211          2.03
     1.771069        127.23
     1.770242          9.93
     1.751184         35.70
     1.739599         25.24
     1.736293          0.58
     1.735446          5.89
     1.715403          1.41
     1.670250          6.87
     1.667750         71.22
     1.667264          8.77
     1.646097          1.41
     1.628965          3.09
     1.619682          5.88
     1.608478        140.15
     1.597396         52.66
     1.594141         39.73
     1.585490          0.07
     1.583300          0.10
     1.578701         13.00
     1.567228         11.17
     1.525690          2.04
     1.522930          7.18
     1.516081          0.92
     1.502782          6.78
     1.501983         30.11
     1.500295         39.09
     1.487100         13.32
     1.478383         27.41
     1.475115          0.57
     1.472316          3.24
     1.466125         15.82
     1.461297          2.21
     1.457393         21.36
     1.430029         17.16
     1.429555         12.79
     1.423435          1.77
     1.418453          1.03
     1.415811          2.61
     1.415144          1.94
     1.406005          2.84
     1.399342         10.82
     1.390718         48.31
     1.389590          4.19
     1.387854         21.25
     1.380198          0.16
     1.378362         18.74
     1.377538         31.77
     1.368118          4.08
     1.360389         15.79
     1.358761          2.55
     1.358027          2.01
     1.340353          0.72
     1.335291          9.52
     1.330733          0.07
     1.328318          7.45
     1.315819          0.82
     1.309319         17.72
     1.303595          8.87
     1.297349          0.67
     1.290891          2.57
     1.289764          0.79
     1.289199         25.14
     1.287274          0.35
     1.282726          0.37
     1.281360          2.10
     1.281031          2.28
     1.280911         35.82
     1.266901          6.39
     1.261779         17.90
     1.260834         11.92
     1.259861          5.84
     1.257775          0.01
     1.252642         19.03
     1.250652          1.78
     1.239647          0.23
     1.239548         19.74
     1.238901          0.03
     1.237977          1.01
     1.234504          4.30
     1.227987          0.38
     1.227615          1.98
     1.225088          1.59
     1.224195          0.62
     1.221206         11.75
     1.213473          0.21
     1.206868          0.01
     1.204938          3.78
     1.204089          5.74
     1.202779          0.30
     1.202498          0.11
     1.195329          0.70
     1.183520          0.12
     1.183431          1.25
     1.179387          0.21
     1.179106          1.10
     1.178590          0.12
     1.178418         18.37
     1.177830         11.43
     1.177359          0.42
     1.171547          1.52
     1.166528          0.29
     1.166069         15.67
     1.158984          0.04
     1.151652         19.77
     1.149975          0.02
     1.149237          0.52
     1.144755         16.25
     1.142082          7.59
     1.141613          5.71
     1.132035          0.17
     1.130434         15.06
     1.126340         10.09
     1.124594          2.89
     1.121828          1.46
     1.120398          0.57
     1.116407          2.94
     1.116041          0.88
     1.114545          0.79
     1.111833          2.60
     1.111672          0.03
     1.109933          0.00
     1.097416          1.08
     1.096794          0.18
     1.096551          3.76
     1.096153          3.58
     1.093728          1.21
     1.093432          0.08
     1.092122          5.06
     1.090236          0.00
     1.086193          0.00
     1.085723          6.79
     1.084236         11.82
     1.082695          0.60
     1.079329          1.16
     1.077774          1.64
     1.074966          7.42
     1.074381          0.15
     1.073019          0.71
     1.072419          3.41
     1.071299          3.14
     1.070619          1.13
     1.067576          3.32
     1.066788         11.97
     1.066217          2.34
     1.060566          3.50
     1.054640          0.14
     1.053742          1.69
     1.053062          2.96
     1.052128          1.83
     1.047864          7.31
     1.045415          6.37
     1.045295          2.50
     1.045018          6.16
     1.044757          1.85
     1.043869          9.60
     1.042354          6.54
     1.040333          7.35
     1.037903          0.14
     1.033013          0.17
     1.032427          2.45
     1.032291          0.11
     1.032235          7.29
     1.032112          0.25
     1.022508         16.29
     1.019424          4.70
     1.017208          2.89
     1.015921          0.09
     1.012343          1.86
     1.008830          6.61
     1.007726          4.93
     1.007697          0.40
##############################################################################
###                            Comments                                    ###
##############################################################################
###   Diffraction pattern calculated by Match!. 
###   I/Ic calculated by Match!. 
##############################################################################


