##############################################################################
###               Crystal structure data exported by Match!                ###
##############################################################################
###                           Data published by:                           ###
###                                                                        ###
###               COD (Crystallography Open Database)
##############################################################################
data_8104322
_citation_journal_full    'Zeitschrift fuer Kristallographie, Kristallgeometrie, Kristallphysik,Kristallchemie (145,1977-148,1979)'
_citation_journal_volume  '112'
_citation_page_first  '409'
_citation_page_last   '413'
_citation_year  '1959'
_citation_title  'The crystal structure of keatite, a new form of silica'
loop_
_publ_author_name
  'Shropshire J.'
  'Keat P.P.'
  'Vaughan P.A.'
_chemical_formula_sum  'O2 Si'
_chemical_name_common  'Silica'
_symmetry_space_group_name_H-M 'P 41 21 2'
_space_group_IT_number 92
_space_group_crystal_system 'tetragonal'
loop_
_symmetry_equiv_pos_as_xyz
   'x, y, z'
   '-y+0.5, x+0.5, z+0.25'
   '-x, -y, z+0.5'
   'y+0.5, -x+0.5, z+0.75'
   'x+0.5, -y+0.5, -z+0.75'
   '-x+0.5, y+0.5, -z+0.25'
   'y, x, -z'
   '-y, -x, -z+0.5'
_cell_length_a        7.46400
_cell_length_b        7.46400
_cell_length_c        8.62000
_cell_angle_alpha    90.0000
_cell_angle_beta     90.0000
_cell_angle_gamma    90.0000
_cell_formula_units_Z 12
loop_
_atom_site_label
_atom_site_fract_x
_atom_site_fract_y
_atom_site_fract_z
_atom_site_occupancy
_atom_site_B_iso_or_equiv
o      0.344   0.297   0.143    1.00000    1.000
o      0.117   0.123   0.296    1.00000    1.000
o      0.445   0.132   0.400    1.00000    1.000
si      0.410   0.410   0.000    1.00000    1.000
si      0.326   0.120   0.248    1.00000    1.000
_cell_measurement_wavelength    1.541874
_cell_measurement_radiation   'x-rays'
_exptl_crystal_density_diffrn    2.493000
loop_
_pd_peak_d_spacing
_pd_peak_intensity
     5.642623         43.22
     5.277845          2.17
     4.501149       1000.00
     3.732427        437.16
     3.732000          7.54
     3.424801         18.89
     3.338308        230.33
     3.338002          5.10
     3.112765        167.73
     2.821311          4.18
     2.681504         15.79
     2.639074          3.27
     2.638923          3.94
     2.523590          0.16
     2.523326         37.25
     2.390421          4.41
     2.360324          1.32
     2.276717         39.45
     2.276523        236.84
     2.250574         38.62
     2.177663         84.40
     2.155000         14.94
     2.154753          0.15
     2.070433          9.55
     2.070214         23.45
     2.070141          1.99
     2.012908          8.84
     1.995099          8.83
     1.943596         33.75
     1.880874          5.50
     1.866214          0.75
     1.866053         32.90
     1.866000         99.44
     1.823858          1.45
     1.823758          0.79
     1.810481         18.22
     1.810286          8.28
     1.771639         25.29
     1.759282          0.79
     1.723748         13.29
     1.712400         13.36
     1.679775          1.67
     1.679619         27.97
     1.669154          0.14
     1.669039         25.69
     1.669001          0.03
     1.638787         34.14
     1.638570          6.50
     1.628920          0.27
     1.628814          7.59
     1.591463         14.12
     1.565076          0.06
     1.564950         33.48
     1.556383          0.90
     1.531765         14.44
     1.531647         42.98
     1.500383          1.69
     1.492909         41.69
     1.492800          1.30
     1.470906          3.29
     1.463811          5.21
     1.443299          1.35
     1.443200          7.56
     1.443150          4.79
     1.417049          0.14
     1.410771          7.23
     1.410656         19.66
     1.410587         54.18
     1.392182         23.94
     1.386227          1.80
     1.386118          0.39
     1.386052         27.25
     1.386030          0.14
     1.368453          9.03
     1.362817         19.01
     1.340752          0.00
     1.324765          5.66
     1.324689         12.13
     1.319631          0.29
     1.319537          1.39
     1.319480          0.08
     1.319461          4.88
     1.304306          1.75
     1.304270          0.91
     1.280065          0.18
     1.266281         10.06
     1.266181          3.32
     1.261795         38.42
     1.261663          0.26
     1.248442          7.24
     1.248378          4.71
     1.244142          1.15
     1.244000          0.00
     1.231337          4.72
     1.231245          0.11
     1.227211          1.43
     1.227135          1.63
     1.227089          8.28
     1.227074         13.63
     1.215004          5.15
     1.214827          7.90
     1.210879         14.68
     1.199219          9.67
     1.199134          0.97
     1.199078         14.19
     1.195211          1.23
     1.180284          2.77
     1.180176          2.09
     1.180162          0.67
     1.169412          3.79
     1.169281          4.06
     1.169255          8.50
     1.165733         10.05
     1.165681          2.77
     1.155318          5.88
     1.155167          8.86
     1.141600          0.71
     1.138358          1.04
     1.138261          0.41
     1.128525          1.93
     1.128477          9.35
     1.125346          0.12
     1.125287          6.67
     1.125252         22.06
     1.115911          0.01
     1.115842          7.29
     1.112769          1.74
     1.112667          2.86
     1.103645          0.48
     1.103512          6.17
     1.100551          0.74
     1.091774          6.65
     1.091668          8.03
     1.088832          0.17
     1.080217          3.22
     1.080175          4.96
     1.077500          5.17
     1.077377          0.67
     1.077346          1.33
     1.066445          0.58
     1.066326          1.82
     1.058337          4.30
     1.058220          2.73
     1.055724          0.17
     1.055569          7.94
     1.047799          8.73
     1.047743          2.26
     1.037588         11.38
     1.035216          0.19
     1.035153         10.03
     1.035107          1.25
     1.035080          0.07
     1.035071          0.04
     1.027795          0.57
     1.027742          5.48
     1.027688          4.92
     1.025401          2.53
     1.025339          2.24
     1.025295          2.49
     1.025268          2.47
     1.025259          5.58
     1.018187          5.96
     1.018083          6.02
     1.008844          0.08
     1.008793          0.00
     1.006454          3.41
##############################################################################
###                            Comments                                    ###
##############################################################################
###   Diffraction pattern calculated by Match!. 
###   I/Ic calculated by Match!. 
###   Space group has been derived from given symmetry operations. 
##############################################################################


