##############################################################################
###               Crystal structure data exported by Match!                ###
##############################################################################
###                           Data published by:                           ###
###                                                                        ###
###               COD (Crystallography Open Database)
##############################################################################
data_9009893
_citation_journal_full    'Inorganic Chemistry'
_citation_journal_volume  '16'
_citation_page_first  '2417'
_citation_page_last   '2422'
_citation_year  '1977'
_citation_title  'Crystal structures of two isomorphs of arsenoclasite: Co5(PO4)2(OH)4 and Mn5(PO4)2(OH)4 Locality: synthetic'
loop_
_publ_author_name
  'Ruszala F. A.'
  'Anderson J. B.'
  'Kostiner E.'
_chemical_formula_sum  'Co5 H4 O12 P2'
_symmetry_space_group_name_H-M 'P 21 21 21'
_space_group_IT_number 19
_space_group_crystal_system 'orthorhombic'
loop_
_symmetry_equiv_pos_as_xyz
   'x, y, z'
   '-x+0.5, -y, z+0.5'
   'x+0.5, -y+0.5, -z'
   '-x, y+0.5, -z+0.5'
_cell_length_a        8.90300
_cell_length_b       17.39700
_cell_length_c        5.51540
_cell_angle_alpha    90.0000
_cell_angle_beta     90.0000
_cell_angle_gamma    90.0000
loop_
_atom_site_label
_atom_site_fract_x
_atom_site_fract_y
_atom_site_fract_z
_atom_site_occupancy
_atom_site_B_iso_or_equiv
co      0.377   0.126   0.446    1.00000    0.368
co      0.382   0.032   0.953    1.00000    0.390
co      0.357   0.222   0.931    1.00000    0.400
co      0.750   0.931   0.767    1.00000    0.439
co      0.507   0.822   0.086    1.00000    0.460
p      0.680   0.120   0.811    1.00000    0.239
p      0.429   0.872   0.625    1.00000    0.259
o      0.742   0.858   0.068    1.00000    0.428
o      0.508   0.123   0.779    1.00000    0.409
o      0.728   0.173   0.021    1.00000    0.559
o      0.727   0.040   0.897    1.00000    0.469
o      0.256   0.873   0.620    1.00000    0.368
o      0.497   0.929   0.811    1.00000    0.670
o      0.484   0.890   0.371    1.00000    0.497
o      0.481   0.793   0.722    1.00000    0.550
o      0.467   0.220   0.253    1.00000    0.510
o      0.262   0.797   0.121    1.00000    0.520
o      0.258   0.041   0.638    1.00000    0.428
o      0.516   0.051   0.268    1.00000    0.460
_cell_measurement_wavelength    1.541874
_cell_measurement_radiation   'x-rays'
_exptl_crystal_density_diffrn    4.296000
loop_
_pd_peak_d_spacing
_pd_peak_intensity
     8.698500          0.01
     7.925471         17.23
     6.221810          5.41
     5.257511          8.21
     4.859127         40.63
     4.688605         26.33
     4.657977         14.19
     4.527077        106.21
     4.451500          2.07
     4.349250        184.48
     4.312559        274.57
     4.127231         25.20
     3.996476          7.39
     3.962736        162.71
     3.907874        181.83
     3.645984          9.92
     3.531091         12.32
     3.464001          3.28
     3.415160        168.95
     3.397310         98.26
     3.240707        140.21
     3.218205         15.18
     3.188612          1.90
     3.110905          2.55
     2.973835         41.85
     2.942760        228.36
     2.925408        464.75
     2.899500          0.78
     2.808703        442.87
     2.794083       1000.00
     2.757700         10.94
     2.756974         11.28
     2.741354         81.03
     2.723693         40.74
     2.709604        820.68
     2.641824          9.48
     2.634224          0.21
     2.628756         33.85
     2.613373         63.84
     2.604535        702.22
     2.584376         65.91
     2.566461          0.44
     2.521152         45.05
     2.502854          9.70
     2.490440         67.48
     2.466042         87.95
     2.454845         65.07
     2.451372         36.64
     2.429564         31.70
     2.398372          4.51
     2.393767          4.67
     2.382603        110.97
     2.344302          0.02
     2.328989          4.29
     2.323304        147.39
     2.265869          0.14
     2.263539        114.33
     2.257920         11.85
     2.253169         27.89
     2.240079         11.96
     2.225750         43.11
     2.223402         25.89
     2.207755          0.27
     2.195868        133.52
     2.174625          0.11
     2.173423         53.75
     2.169995          6.21
     2.161203         19.87
     2.156280          0.07
     2.112520          0.00
     2.100209         48.00
     2.089596         28.13
     2.077950          1.17
     2.073937         10.64
     2.064019          3.49
     2.063615         10.59
     2.049644         71.33
     2.023053         10.77
     2.020142         75.34
     2.019323         52.77
     2.008257         24.07
     2.006659         20.39
     1.998238         83.08
     1.981368         19.29
     1.972762         21.62
     1.967773         65.11
     1.953937          0.15
     1.949732          7.92
     1.944521         37.52
     1.944183         23.58
     1.941231        187.26
     1.907701         15.85
     1.905382          0.40
     1.888989         81.42
     1.874946          0.48
     1.864694         63.86
     1.846181         10.23
     1.841775         43.28
     1.832151         17.59
     1.828286          1.67
     1.824209         22.20
     1.822992          7.79
     1.807723         36.55
     1.800942         28.18
     1.800479          2.36
     1.798730         24.53
     1.790914          1.76
     1.787081         79.55
     1.775176         86.40
     1.773051         18.67
     1.771346         34.82
     1.765546          0.01
     1.763106         12.13
     1.754097          0.02
     1.752504          4.62
     1.747030         33.88
     1.744427         19.58
     1.739700          2.51
     1.732001        126.97
     1.723480         40.82
     1.719507        108.25
     1.707580         15.96
     1.707408        114.76
     1.705336          0.70
     1.702166          0.60
     1.699250         11.62
     1.698655         41.58
     1.694483          0.41
     1.693391          0.04
     1.691202         13.09
     1.687973         10.49
     1.686502          5.98
     1.681494         64.57
     1.677013          3.48
     1.671595          8.23
     1.667727          3.60
     1.663566         83.48
     1.663219         14.67
     1.659561         61.90
     1.659121         14.98
     1.658033          2.65
     1.657514         20.21
     1.647848          4.22
     1.631041         11.58
     1.630684          1.64
     1.626469        145.16
     1.625503         53.75
     1.620354          8.31
     1.619709          0.91
     1.609103          9.33
     1.599069         21.30
     1.594306         13.50
     1.587837         96.60
     1.585094          2.00
     1.582871         21.54
     1.582739         59.85
     1.578885          7.65
     1.567599         74.25
     1.562868         24.38
     1.558432         15.12
     1.557167         28.91
     1.556600          2.57
     1.555452         91.40
     1.554650         58.46
     1.554081         37.04
     1.552659        208.36
     1.550519         45.07
     1.538237         15.80
     1.529573         29.59
     1.526890         34.43
     1.523428          9.24
     1.520277         14.51
     1.517328          9.66
     1.509026         11.40
     1.500828         12.34
     1.498585         29.00
     1.497057         15.31
     1.495877         35.54
     1.491392         36.01
     1.490377          3.11
     1.490283          9.58
     1.486917         54.00
     1.483833          0.10
     1.480059          4.27
     1.478465         30.20
     1.478020         36.91
     1.474236         34.57
     1.471380          0.07
     1.470791         23.07
     1.466040          0.18
     1.462976        117.62
     1.462704         24.02
     1.459443          0.03
     1.458064          5.21
     1.451688         22.85
     1.449750         39.96
     1.448462         27.41
     1.448169          3.33
     1.447446         10.16
     1.438689          3.57
     1.437520         10.40
     1.432883         15.40
     1.430903          5.28
     1.428048          0.24
     1.425652         67.02
     1.420975          8.60
     1.417449          0.00
     1.414548          3.02
     1.413829         38.04
     1.412767          1.31
     1.410884          1.46
     1.404351          0.48
     1.403970          0.19
     1.402721         12.10
     1.402121         22.19
     1.400036          7.49
     1.398996         57.92
     1.397042         43.34
     1.396628         19.90
     1.395717         19.11
     1.391048          2.96
     1.386832          1.65
     1.385050         12.74
     1.378850          0.07
     1.378487          0.38
     1.377686          1.62
     1.376913          3.39
     1.375744         16.77
     1.374539          0.39
     1.374254         18.49
     1.371939         16.76
     1.370677          0.04
     1.364898          0.71
     1.362605         52.10
     1.361846          5.00
     1.360928         27.30
     1.358445         35.64
     1.355934         26.87
     1.354802          3.10
     1.353066         29.99
     1.347683          0.12
     1.346188         24.93
     1.341451          4.08
     1.338954          1.62
     1.337350          0.38
     1.336618          7.37
     1.332159          4.07
     1.330215          2.74
     1.329386          2.50
     1.326478          2.45
     1.324930          7.67
     1.323364          6.84
     1.323016         10.17
     1.320912          1.09
     1.318247          9.95
     1.317491          0.08
     1.317112          1.60
     1.314378          1.61
     1.313353          1.13
     1.312700          2.06
     1.311084         27.21
     1.309642          3.07
     1.306686          0.24
     1.303016         12.83
     1.302625          2.73
     1.302268         34.30
     1.300497          0.03
     1.300284          1.62
     1.292188         13.71
     1.289938          1.88
     1.289220          0.08
     1.286840          0.35
     1.284585          9.25
     1.284399          5.24
     1.283230          2.90
     1.281864          3.86
     1.281632         12.24
     1.281572          0.52
     1.279043         12.46
     1.276236          2.92
     1.275600         16.00
     1.274726          2.73
     1.274213          5.96
     1.274033          0.32
     1.273429          3.41
     1.270105          0.63
     1.269113         14.47
     1.268780          2.19
     1.268472          4.24
     1.267747          4.45
     1.265436          6.23
     1.263628          6.54
     1.260576          7.92
     1.258476          2.15
     1.255380          0.40
     1.251427          2.41
     1.251089         11.54
     1.250468          5.63
     1.249022          4.71
     1.248315          9.39
     1.247250         10.69
     1.245306         20.79
     1.245220          4.15
     1.244362          0.10
     1.242643          0.02
     1.242328          0.41
     1.241345         14.40
     1.239332          0.60
     1.237743          3.47
     1.236199          9.35
     1.233216          1.67
     1.233021          8.59
     1.232448          5.70
     1.231808          6.36
     1.231269          1.96
     1.230713          0.00
     1.227422          7.18
     1.227081          0.48
     1.226941          1.45
     1.225686          0.01
     1.223267          9.43
     1.222371          0.87
     1.220732          0.58
     1.219933          0.00
     1.215600          1.79
     1.215328          5.28
     1.214782         16.56
     1.213851          0.87
     1.212255          1.68
     1.211963          5.02
     1.205716          0.09
     1.203959          0.09
     1.201782          2.30
     1.201172         13.47
     1.200499         13.41
     1.199186          0.46
     1.198955          4.55
     1.196884          7.20
     1.196497          5.61
     1.194808         11.25
     1.194551          0.02
     1.193099          0.69
     1.191887         11.01
     1.191301          3.89
     1.191144          7.65
     1.188228         13.34
     1.187466          0.51
     1.186347         19.69
     1.183014         26.70
     1.182461          2.08
     1.177834          6.71
     1.177030         11.78
     1.176777         10.15
     1.172151          0.10
     1.170241          5.69
     1.169659          0.87
     1.169500         42.86
     1.167897          4.42
     1.167482         19.69
     1.164730          0.99
     1.164494          2.43
     1.163782          0.58
     1.162621          4.79
     1.162202          3.21
     1.161652          2.22
     1.157699          4.86
     1.156571          0.76
     1.156188          8.71
     1.154942          0.33
     1.154667          0.10
     1.154659          5.77
     1.152406         20.55
     1.152132          0.28
     1.151110          1.80
     1.150082          2.81
     1.148916          9.52
     1.148236          0.75
     1.146891          1.80
     1.146215          0.23
     1.144895          1.12
     1.144627          1.17
     1.143062          3.44
     1.139596          4.29
     1.138387          1.09
     1.137270          1.26
     1.134977          4.82
     1.134237         14.16
     1.132935          8.62
     1.132696          6.74
     1.132437         12.41
     1.132210         10.49
     1.131769          2.08
     1.129193          6.11
     1.128960          4.99
     1.126585          3.47
     1.125866         26.07
     1.124240          2.61
     1.123872          0.53
     1.122871          8.32
     1.122528          9.92
     1.122332          2.66
     1.122236          7.68
     1.120040         10.88
     1.117042          8.58
     1.116255          1.47
     1.116007         37.87
     1.115645         19.26
     1.113711          1.66
     1.112875         29.84
     1.111701         19.35
     1.111659          3.16
     1.110812          2.44
     1.110605          2.55
     1.109083          4.82
     1.106027          0.56
     1.103877          0.65
     1.102894         18.06
     1.102484          3.59
     1.101588          1.70
     1.100869          0.52
     1.099793          4.52
     1.098882         21.91
     1.097934          0.12
     1.097872          1.45
     1.096133          0.28
     1.095897         11.47
     1.094709          0.28
     1.094316          0.89
     1.092931          4.45
     1.092549          2.47
     1.090890          0.80
     1.090194          5.23
     1.088751          5.47
     1.088455          5.18
     1.088060         14.61
     1.087312          2.62
     1.086769         10.45
     1.086711          9.00
     1.086142          1.77
     1.084997          0.07
     1.084026          3.16
     1.083649          0.52
     1.082549         24.77
     1.082411          3.06
     1.082124         12.06
     1.081950          2.44
     1.081731          1.35
     1.080602          0.62
     1.080236          1.25
     1.079293          0.01
     1.078140          0.20
     1.076747          1.97
     1.075710          1.97
     1.074047          4.60
     1.072956          0.59
     1.072735          0.40
     1.072729          1.90
     1.072085          3.13
     1.071425          4.90
     1.070697          0.25
     1.069782          3.55
     1.069226          2.15
     1.069098          0.70
     1.068675          1.94
     1.066780          6.71
     1.066673          0.05
     1.064593          2.62
     1.062871          1.05
     1.062677          6.33
     1.062494          2.31
     1.061879          1.26
     1.061598         17.61
     1.061472          6.35
     1.060156          1.42
     1.060094          4.96
     1.059976          0.01
     1.059203          0.44
     1.058961          4.87
     1.058429          1.46
     1.058113         10.46
     1.057479          3.17
     1.056260          0.03
     1.055551          3.36
     1.052901          6.09
     1.051502          6.56
     1.051341          0.66
     1.050209          0.95
     1.050104         39.44
     1.049929         11.52
     1.047372          7.89
     1.047167          9.92
     1.045958          1.30
     1.044798          9.42
     1.044244         26.01
     1.044073          4.87
     1.043311          2.37
     1.041053         16.38
     1.040927         25.09
     1.040323          5.28
     1.039656          2.60
##############################################################################
###                            Comments                                    ###
##############################################################################
###   Diffraction pattern calculated by Match!. 
###   I/Ic calculated by Match!. 
##############################################################################


