##############################################################################
###               Crystal structure data exported by Match!                ###
##############################################################################
###                           Data published by:                           ###
###                                                                        ###
###               COD (Crystallography Open Database)
##############################################################################
data_4124040
_citation_journal_full    'Journal of the American Chemical Society'
_citation_journal_volume  '126'
_citation_page_first  '9769'
_citation_page_last   '9775'
_citation_year  '2004'
_citation_title  'Chemical evaluation of hypothetical uninodal zeolites'
loop_
_publ_author_name
  'Foster M.D.'
  'Friedrichs O.D.'
  'Bell R.G.'
  'Paz F.A.A.'
  'Klinowski J.'
_chemical_formula_sum  'O2 Si'
_chemical_name_common  'Silica'
_symmetry_space_group_name_H-M 'P 63/m c m'
_space_group_IT_number 193
_space_group_crystal_system 'hexagonal'
loop_
_symmetry_equiv_pos_as_xyz
   'x, y, z'
   'x-y, x, z+0.5'
   '-y, x-y, z'
   '-x, -y, z+0.5'
   '-x+y, -x, z'
   'y, -x+y, z+0.5'
   'x-y, -y, -z+0.5'
   '-x, -x+y, -z+0.5'
   'y, x, -z+0.5'
   '-y, -x, -z'
   '-x+y, y, -z'
   'x, x-y, -z'
   '-x, -y, -z'
   '-x+y, -x, -z+0.5'
   'y, -x+y, -z'
   'x, y, -z+0.5'
   'x-y, x, -z'
   '-y, x-y, -z+0.5'
   '-x+y, y, z+0.5'
   'x, x-y, z+0.5'
   '-y, -x, z+0.5'
   'y, x, z'
   'x-y, -y, z'
   '-x, -x+y, z'
_cell_length_a       13.55030
_cell_length_b       13.55030
_cell_length_c        8.87827
_cell_angle_alpha    90.0000
_cell_angle_beta     90.0000
_cell_angle_gamma   120.0000
_cell_formula_units_Z 24
loop_
_atom_site_label
_atom_site_fract_x
_atom_site_fract_y
_atom_site_fract_z
_atom_site_occupancy
_atom_site_B_iso_or_equiv
o      0.845   0.326   0.250    1.00000    1.000
si      0.131   0.669   0.574    1.00000    1.000
o      0.582   0.164   0.000    1.00000    1.000
o      0.793   0.207   0.000    1.00000    1.000
o      0.000   0.369   0.460    1.00000    1.000
_cell_measurement_wavelength    1.541874
_cell_measurement_radiation   'x-rays'
_exptl_crystal_density_diffrn    1.696000
loop_
_pd_peak_d_spacing
_pd_peak_intensity
    11.734904       1000.00
     6.775150         27.95
     5.867452          9.61
     5.386023        163.93
     4.439135        163.31
     4.435377        132.32
     4.151991         38.62
     3.967793         80.64
     3.911635         16.90
     3.713103          9.54
     3.540114          1.46
     3.387575         77.16
     3.254677          1.64
     3.165009         68.07
     3.137613         19.82
     3.055816         13.14
     2.934813          0.24
     2.933726         28.82
     2.711989         45.12
     2.693011          6.96
     2.692172          1.18
     2.624782          0.69
     2.576330          0.00
     2.560766         31.16
     2.461747         25.34
     2.460465          1.34
     2.447527         14.97
     2.346981          0.12
     2.301929          0.37
     2.258383          0.12
     2.228726          7.61
     2.219568          7.74
     2.218158          0.44
     2.217688          0.01
     2.189586          0.56
     2.188684         16.40
     2.180900          2.57
     2.151581          0.40
     2.109264          0.02
     2.107651         14.81
     2.075995          0.15
     2.074842         14.66
     2.050659          0.06
     2.012870          5.21
     1.991447          1.67
     1.984905          1.52
     1.983897          0.26
     1.955817         12.07
     1.936460          0.17
     1.930443          0.92
     1.929206          0.58
     1.903950          1.92
     1.885212          8.82
     1.879088          3.99
     1.856551          0.14
     1.838364          0.39
     1.833744          0.89
     1.795341         17.77
     1.789803          0.01
     1.789556          0.94
     1.774691          0.54
     1.770057          0.21
     1.769342          0.07
     1.754274          1.00
     1.730440          2.58
     1.717643         14.38
     1.716772          0.51
     1.712575          0.55
     1.693787          0.01
     1.677226          2.63
     1.676415          1.94
     1.663780          3.63
     1.659763          0.26
     1.648461         10.58
     1.647306          0.09
     1.627338          8.40
     1.616137          5.37
     1.612634          8.18
     1.600672          2.23
     1.586329          0.23
     1.583016          4.50
     1.582505          1.23
     1.572699          7.47
     1.568806          0.18
     1.568308          0.89
     1.558763          1.12
     1.554326          6.45
     1.531349          0.55
     1.531040          9.88
     1.528368          0.45
     1.527908          7.96
     1.502500          4.70
     1.482276          0.10
     1.481436          0.05
     1.479712          1.70
     1.478459          0.05
     1.470044          0.51
     1.468086          0.75
     1.467406          0.00
     1.466999          1.87
     1.466863          0.00
     1.459177          0.80
     1.458643          0.07
     1.458376          2.94
     1.456067          0.30
     1.445635          0.20
     1.434789          0.37
     1.434154          0.12
     1.433647          0.60
     1.425970          4.33
     1.423190          2.71
     1.415313          2.60
     1.403659          1.13
     1.402708          0.18
     1.395866          6.55
     1.393142          0.77
     1.392793          0.01
     1.386094          0.01
     1.383997          0.07
     1.376077         12.20
     1.373467          0.33
     1.364264          0.01
     1.357967          0.03
     1.357321          0.52
     1.355994          3.89
     1.355030         15.43
     1.347031          0.21
     1.346506          0.00
     1.346086          1.71
     1.339725          0.55
     1.339519          0.01
     1.337728          0.12
     1.330876          0.26
     1.322598          3.51
     1.321172          0.55
     1.320280          0.02
     1.312391          0.98
     1.312099          0.00
     1.306494          4.80
     1.305919          0.07
     1.303878          3.07
     1.296747          1.46
     1.295997          6.78
     1.290595          0.21
     1.290225          2.86
     1.288165          0.90
     1.281196         11.27
     1.280383          1.68
     1.273184          0.15
     1.267272          0.08
     1.265494          0.11
     1.260463          0.15
     1.251704          9.46
     1.251029          2.42
     1.246668          0.02
     1.245835          0.26
     1.244229          0.00
     1.237701          6.01
     1.232026          0.01
     1.230874          0.16
     1.230473          0.02
     1.230232          0.44
     1.230152          2.47
     1.225609          1.47
     1.225292          0.58
     1.223764          0.12
     1.219446          0.04
     1.218978          0.02
     1.218511          0.07
     1.216853          0.62
     1.211050          1.16
     1.205733          0.58
     1.205582          1.02
     1.204276          0.05
     1.199715          1.61
     1.191499          6.14
     1.187801          1.36
     1.185476          1.14
     1.181763          0.50
     1.180912          0.62
     1.180038          4.62
     1.175117          1.44
     1.174117          0.90
     1.173560          1.35
     1.173490          0.51
     1.169544          7.60
     1.167941          0.32
     1.162536          0.87
     1.156541          0.09
     1.156274          0.05
     1.150964          0.02
     1.150768          5.99
     1.147370          0.04
     1.146981          0.24
     1.146591          0.39
     1.140368          0.07
     1.136556          0.12
     1.136178          2.56
     1.135925          0.29
     1.134707          0.33
     1.134519          0.03
     1.129192          0.06
     1.125429          4.05
     1.124244          0.26
     1.124000          0.00
     1.120168          0.56
     1.118939          0.05
     1.115457          2.98
     1.115099          0.00
     1.114363          0.21
     1.113828          2.31
     1.109784          0.14
     1.109372          1.67
     1.109079          0.29
     1.108844          0.23
     1.105862          0.21
     1.105281          1.96
     1.105165          0.00
     1.104854          0.03
     1.100984          0.28
     1.100296          0.34
     1.095188          0.17
     1.094793          0.00
     1.094342          0.58
     1.090450          0.15
     1.089614          0.17
     1.086729          0.13
     1.086398          0.46
     1.084892          2.01
     1.080340          0.35
     1.077205          0.02
     1.076990          0.68
     1.076882          1.86
     1.076595          0.07
     1.075951          0.08
     1.075790          0.00
     1.072695          0.57
     1.071722          2.93
     1.067646          0.12
     1.067018          0.01
     1.066809          0.28
     1.059804          0.02
     1.059497          0.00
     1.055003          2.20
     1.054632          0.57
     1.054279          1.09
     1.053876          0.75
     1.053825          0.07
     1.051265          0.02
     1.050765          0.29
     1.050398          0.19
     1.049801          1.82
     1.046479          0.11
     1.045871          0.06
     1.042440          0.02
     1.041742          0.17
     1.041304          0.72
     1.038544          0.00
     1.038351          0.82
     1.037998          0.22
     1.037421          0.44
     1.037277          0.02
     1.034787          0.44
     1.034215          0.31
     1.033201          0.18
     1.029642          0.77
     1.026275          0.01
     1.026026          0.47
     1.025469          0.07
     1.025330          0.00
     1.018605          2.16
     1.018271          2.13
     1.017545          0.01
     1.015239          0.26
     1.013786          0.40
     1.011461          0.01
     1.011194          0.11
     1.010927          0.44
     1.006654          0.00
     1.006435          0.13
##############################################################################
###                            Comments                                    ###
##############################################################################
###   Diffraction pattern calculated by Match!. 
###   I/Ic calculated by Match!. 
###   Space group has been derived from given symmetry operations. 
##############################################################################


