##############################################################################
###               Crystal structure data exported by Match!                ###
##############################################################################
###                           Data published by:                           ###
###                                                                        ###
###               COD (Crystallography Open Database)
##############################################################################
data_4002438
_citation_journal_full    'Chemistry of Materials (1,1989-)'
_citation_journal_volume  '18'
_citation_page_first  '1464'
_citation_page_last   '1469'
_citation_year  '2006'
_citation_title  'Magic silica clusters as nanoscale building units forsuper-(tris)tetrahedral materials'
loop_
_publ_author_name
  'Wojdel J.C.'
  'Zwijnenburg M.A.'
  'Bromley S.T.'
_chemical_formula_sum  'O2 Si'
_chemical_name_common  'Silica'
_symmetry_space_group_name_H-M 'I 4/m'
_space_group_IT_number 87
_space_group_crystal_system 'tetragonal'
loop_
_symmetry_equiv_pos_as_xyz
   'x, y, z'
   'x+0.5, y+0.5, z+0.5'
   '-y, x, z'
   '-y+0.5, x+0.5, z+0.5'
   '-x, -y, z'
   '-x+0.5, -y+0.5, z+0.5'
   'y, -x, z'
   'y+0.5, -x+0.5, z+0.5'
   '-x, -y, -z'
   '-x+0.5, -y+0.5, -z+0.5'
   'y, -x, -z'
   'y+0.5, -x+0.5, -z+0.5'
   'x, y, -z'
   'x+0.5, y+0.5, -z+0.5'
   '-y, x, -z'
   '-y+0.5, x+0.5, -z+0.5'
_cell_length_a       13.68000
_cell_length_b       13.68000
_cell_length_c       10.49000
_cell_angle_alpha    90.0000
_cell_angle_beta     90.0000
_cell_angle_gamma    90.0000
_cell_formula_units_Z 32
loop_
_atom_site_label
_atom_site_fract_x
_atom_site_fract_y
_atom_site_fract_z
_atom_site_occupancy
_atom_site_B_iso_or_equiv
o      0.428   0.211   0.341    1.00000    1.000
o      0.250   0.250   0.250    1.00000    1.000
si      0.646   0.000   0.250    1.00000    1.000
o      0.289   0.072   0.341    1.00000    1.000
o      0.276   0.223   0.500    1.00000    1.000
si      0.690   0.810   0.357    1.00000    1.000
o      0.425   0.075   0.168    1.00000    1.000
_cell_measurement_wavelength    1.541874
_cell_measurement_radiation   'x-rays'
_exptl_crystal_density_diffrn    1.626000
loop_
_pd_peak_d_spacing
_pd_peak_intensity
     9.673221       1000.00
     8.324343          0.00
     6.840000        116.41
     5.284779        218.98
     5.245000        226.71
     4.836610         13.74
     4.610820        153.06
     4.325996         77.75
     4.181966          0.00
     4.162172         11.22
     3.567939         46.32
     3.555623          5.81
     3.420000         15.70
     3.387751          0.00
     3.337310         11.84
     3.224407          1.09
     3.163424         53.67
     3.058941         40.76
     3.035800         66.85
     2.864791          0.69
     2.774781          0.00
     2.746861         27.02
     2.682869         14.56
     2.647433          7.12
     2.642390         20.36
     2.622500          0.99
     2.571262         29.73
     2.531130          0.33
     2.468949          0.06
     2.448689          4.01
     2.418305          2.85
     2.406822         15.72
     2.388533          3.16
     2.346101         30.54
     2.305410          0.27
     2.280000          0.03
     2.242599          3.04
     2.199008         27.81
     2.196115         10.79
     2.162998          1.33
     2.154770         42.04
     2.141616          8.17
     2.093480          1.16
     2.090983          2.02
     2.081086          3.16
     2.073754          0.00
     2.055202          1.38
     2.034534         30.21
     2.001818          2.14
     1.999635          1.76
     1.990973         32.47
     1.984551          0.00
     1.934644          4.47
     1.921229          0.00
     1.905949          0.00
     1.897075          2.78
     1.891516         13.01
     1.875367          0.31
     1.849651          3.09
     1.836004          1.20
     1.823092          0.28
     1.815104          2.16
     1.796272          4.75
     1.783970          0.98
     1.777811          1.24
     1.773234          0.00
     1.761593          0.09
     1.748526          0.01
     1.748333          2.44
     1.727627          0.54
     1.720642          1.53
     1.720458          0.07
     1.710000          3.49
     1.705926          0.00
     1.699376          0.08
     1.693875          2.93
     1.675024          5.24
     1.668655         10.95
     1.664869          2.33
     1.658944          2.13
     1.655223          6.06
     1.644208          0.31
     1.625778          0.38
     1.620959          0.81
     1.617640          0.02
     1.612203         11.28
     1.590268          0.00
     1.582792          0.58
     1.581712          0.07
     1.566053          0.01
     1.556851         23.90
     1.556715          0.03
     1.541046          7.45
     1.537071          1.31
     1.536940          9.27
     1.534110          0.13
     1.529471          0.01
     1.526553          4.91
     1.521855          3.38
     1.517900          5.37
     1.510703          0.09
     1.504290          0.00
     1.496921          1.23
     1.489660          0.00
     1.481968          1.13
     1.469180          2.79
     1.468316          0.01
     1.464763          0.00
     1.462313          0.06
     1.455763          0.15
     1.455541          7.52
     1.451687          0.03
     1.441999          0.38
     1.436418          0.46
     1.432396         22.87
     1.429998          0.00
     1.423664          0.00
     1.416842          1.81
     1.401984          5.22
     1.401885          0.11
     1.399736          0.09
     1.393989          0.00
     1.393793          2.10
     1.390408          1.13
     1.387391          4.83
     1.381889         12.09
     1.376975          4.11
     1.373430          0.49
     1.368000          1.42
     1.365911          5.89
     1.365728          5.68
     1.359793          2.51
     1.359702          1.91
     1.349893          0.21
     1.344561          0.32
     1.341434          1.54
     1.339465          0.00
     1.336287          5.90
     1.328719          1.23
     1.323717          1.51
     1.321195          0.20
     1.319313          0.75
     1.314334          0.11
     1.311250          1.90
     1.309041          0.11
     1.300202          1.24
     1.299604          0.83
     1.299366          0.60
     1.297138         16.97
     1.290876          8.23
     1.290721          0.03
     1.288031          1.72
     1.287800          0.95
     1.285631          0.11
     1.277330          0.00
##############################################################################
###                            Comments                                    ###
##############################################################################
###   Diffraction pattern calculated by Match!. 
###   I/Ic calculated by Match!. 
###   Space group has been derived from given symmetry operations. 
##############################################################################


