##############################################################################
###               Crystal structure data exported by Match!                ###
##############################################################################
###                           Data published by:                           ###
###                                                                        ###
###               COD (Crystallography Open Database)
##############################################################################
data_1100019
_citation_journal_full    'Journal of Solid State Chemistry'
_citation_journal_volume  '36'
_citation_page_first  '371'
_citation_page_last   '380'
_citation_year  '1981'
loop_
_publ_author_name
  'Wright A F'
  'Lehmann M S'
_chemical_formula_sum  'O2 Si'
_chemical_name_mineral  'Quartz high'
_chemical_name_common  'Silicon oxide'
_symmetry_space_group_name_H-M 'P 62 2 2'
_space_group_IT_number 180
_space_group_crystal_system 'hexagonal'
loop_
_symmetry_equiv_pos_as_xyz
   'x, y, z'
   'x-y, x, z+0.33333'
   '-y, x-y, z+0.66667'
   '-x, -y, z'
   '-x+y, -x, z+0.33333'
   'y, -x+y, z+0.66667'
   'x-y, -y, -z'
   '-x, -x+y, -z+0.33333'
   'y, x, -z+0.66667'
   '-y, -x, -z+0.66667'
   '-x+y, y, -z'
   'x, x-y, -z+0.33333'
_cell_length_a        4.99770
_cell_length_b        4.99770
_cell_length_c        5.46010
_cell_angle_alpha    90.0000
_cell_angle_beta     90.0000
_cell_angle_gamma   120.0000
_cell_formula_units_Z 3
loop_
_atom_site_label
_atom_site_fract_x
_atom_site_fract_y
_atom_site_fract_z
_atom_site_occupancy
_atom_site_B_iso_or_equiv
si      0.500   0.000   0.000    1.00000    1.000
o      0.416   0.238   0.142    0.50000    1.000
_cell_measurement_wavelength    1.541874
_cell_measurement_radiation   'x-rays'
_exptl_crystal_density_diffrn    2.534000
loop_
_pd_peak_d_spacing
_pd_peak_intensity
     4.328135        188.67
     3.391776       1000.00
     2.498850         43.26
     2.309072         12.92
     2.272199          0.50
     2.164068         35.27
     2.011814         37.68
     1.843280        165.80
     1.820033          0.09
     1.695888         12.82
     1.677731          4.39
     1.635881          3.13
     1.567060         74.34
     1.471174          2.20
     1.442712         11.66
     1.403244         41.61
     1.394842         11.38
     1.392906         70.54
     1.301816          6.82
     1.275555         23.46
     1.249425         20.13
     1.217945          0.72
     1.216655         27.47
     1.200409          6.96
     1.197943         26.64
     1.172409         36.27
     1.154536          2.26
     1.136099          1.07
     1.130592          0.05
     1.098873         16.00
     1.082034          9.30
     1.061393          1.06
     1.058838         13.39
     1.048077         10.72
     1.030067         10.05
##############################################################################
###                            Comments                                    ###
##############################################################################
###   Diffraction pattern calculated by Match!. 
###   I/Ic calculated by Match!. 
###   Space group has been derived from given symmetry operations. 
##############################################################################


