##############################################################################
###               Crystal structure data exported by Match!                ###
##############################################################################
###                           Data published by:                           ###
###                                                                        ###
###               COD (Crystallography Open Database)
##############################################################################
data_9013587
_citation_journal_full    'American Mineralogist'
_citation_journal_volume  '94'
_citation_page_first  '451'
_citation_page_last   '460'
_citation_year  '2009'
_citation_title  'Molecular conformation and anion configuration variations for As4S4 andAs4Se4 in an anion-substituted solid solution Locality: synthetic Note:S1Se2-4'
loop_
_publ_author_name
  'Kyono A.'
_chemical_formula_sum  'As S0.8 Se0.2'
_chemical_name_mineral  'Realgar'
_symmetry_space_group_name_H-M 'P 1 21/n 1'
_space_group_IT_number 14
_space_group_crystal_system 'monoclinic'
loop_
_symmetry_equiv_pos_as_xyz
   'x, y, z'
   '-x+0.5, y+0.5, -z+0.5'
   '-x, -y, -z'
   'x+0.5, -y+0.5, z+0.5'
_cell_length_a        9.42230
_cell_length_b       13.59060
_cell_length_c        6.63540
_cell_angle_alpha    90.0000
_cell_angle_beta    106.4460
_cell_angle_gamma    90.0000
loop_
_atom_site_label
_atom_site_fract_x
_atom_site_fract_y
_atom_site_fract_z
_atom_site_occupancy
_atom_site_B_iso_or_equiv
as      0.120   -0.020   0.762    1.00000    2.363
as      0.424   0.140   0.858    1.00000    2.333
as      0.322   0.128   0.177    1.00000    2.352
as      0.041   0.161   0.712    1.00000    2.526
s      0.345   -0.008   0.698    0.76800    2.352
se      0.345   -0.008   0.698    0.23200    2.352
s      0.214   -0.025   0.119    0.72800    2.392
se      0.214   -0.025   0.119    0.27300    2.392
s      0.240   0.228   0.639    0.89800    2.313
se      0.240   0.228   0.639    0.10190    2.313
s      0.108   0.213   0.054    0.80700    2.518
se      0.108   0.213   0.054    0.19300    2.518
_cell_measurement_wavelength    1.541874
_cell_measurement_radiation   'x-rays'
_exptl_crystal_density_diffrn    3.794000
loop_
_pd_peak_d_spacing
_pd_peak_intensity
     7.525101         72.59
     6.795300         87.12
     6.075550        384.03
     5.763360        521.73
     5.546551        274.52
     5.431131       1000.00
     4.644994        108.56
     4.623358         38.84
     4.529226         13.05
     4.518403         11.46
     4.377018          0.16
     4.287649         25.70
     4.103204        190.10
     4.049817         22.96
     3.822509         35.21
     3.762550        106.91
     3.690611         55.84
     3.636059         80.22
     3.631739          5.66
     3.397650          1.66
     3.235769         11.85
     3.215210         47.13
     3.199156        352.05
     3.181963        436.24
     3.181772          9.69
     3.180294        344.89
     3.120311         10.41
     3.098180         91.53
     3.080756        401.72
     3.037775          5.13
     3.004529         92.58
     2.997231        183.11
     2.975128        236.99
     2.965439          0.02
     2.964620        176.11
     2.948575        506.71
     2.940898         18.56
     2.881680        125.38
     2.805863        170.47
     2.773275         21.97
     2.753827        146.28
     2.737851        487.07
     2.715565        138.64
     2.710462        194.38
     2.672165          0.01
     2.666843         79.35
     2.652876         14.24
     2.603840         45.44
     2.602925        169.34
     2.561918         13.19
     2.547501         35.22
     2.537433        158.56
     2.523038          3.90
     2.508367        125.16
     2.499664          0.50
     2.481133        168.26
     2.466043         85.27
     2.426422         67.37
     2.414330         94.31
     2.370592         78.31
     2.360765          2.74
     2.357093         15.83
     2.343173          0.16
     2.329157         12.57
     2.322497          3.06
     2.318116         36.94
     2.314667          2.01
     2.311679         14.97
     2.298196          0.37
     2.282253          0.15
     2.278947          1.08
     2.265100        153.92
     2.264613          1.24
     2.259201         23.64
     2.253986         50.70
     2.243785         87.34
     2.228619         25.19
     2.220085         25.34
     2.208992        142.58
     2.197132        104.36
     2.188509         36.82
     2.180379         66.67
     2.165927          1.98
     2.152027        101.93
     2.145072          4.42
     2.144000        127.90
     2.143824         45.45
     2.133959          5.26
     2.125544         37.79
     2.122395         44.84
     2.100780          0.46
     2.100396          1.80
     2.095931         24.20
     2.090990          0.13
     2.085324          1.45
     2.068183         53.15
     2.066725          0.00
     2.059091          4.97
     2.056182         14.47
     2.051602         45.93
     2.038213          5.15
     2.034098          3.97
     2.025619          0.38
     2.025183         27.40
     2.024935          1.60
     2.024909         21.65
     2.021743          2.72
     2.018003         19.34
     2.004465         11.71
     2.003067         11.13
     1.995767         52.28
     1.985521         20.62
     1.957933          8.26
     1.946221          1.66
     1.943847          0.36
     1.941057          0.00
     1.940825          6.12
     1.938718         41.12
     1.932178          3.87
     1.926567         22.87
     1.921120          4.63
     1.912277          4.36
     1.911254          9.31
     1.898200         11.80
     1.884459         17.13
     1.884259         22.05
     1.881275          8.11
     1.872346          1.06
     1.870995        111.90
     1.869154         49.76
     1.866601         24.03
     1.862516        138.20
     1.857899         16.51
     1.857016          8.10
     1.851986          3.64
     1.849380          2.72
     1.848850          5.15
     1.845306         87.18
     1.829537          0.37
     1.826387          0.03
     1.824926        129.56
     1.818029         19.78
     1.815925        149.93
     1.815869          4.91
     1.810377         13.11
     1.809484          8.54
     1.799755         94.04
     1.799395         34.28
     1.791588          2.56
     1.790699          2.61
     1.790082          5.81
     1.788186         28.31
     1.783810          0.15
     1.777275         54.20
     1.776742         18.45
     1.769786         14.24
     1.763207          0.62
     1.760951         19.07
     1.752474         22.05
     1.746637         17.54
     1.745814          7.33
     1.739927         23.27
     1.739601         62.26
     1.737419          3.64
     1.725949         15.10
     1.714269        123.64
     1.702992         65.71
     1.698825         51.75
     1.698519          0.97
     1.696419          7.27
     1.693389         57.05
     1.688784        139.20
     1.687233         35.73
     1.685652         95.93
     1.679135          3.34
     1.678695          2.71
     1.677964         29.68
     1.674572          5.31
     1.672306         33.27
     1.669793          0.02
     1.669580         21.22
     1.668190         34.70
     1.657358          7.18
     1.654574         34.56
     1.647957         65.64
     1.642545         15.65
     1.642447          4.79
     1.641350          2.74
     1.636614          5.61
     1.636362          8.59
     1.636070          6.26
     1.635932         21.93
     1.631913         21.01
     1.630517         42.78
     1.624628          0.91
     1.624338          0.04
     1.623983          0.09
     1.622101          5.26
     1.620782          1.65
     1.617884         10.26
     1.610669         45.92
     1.609378         16.43
     1.608253         18.80
     1.607605          2.72
     1.602135          0.03
     1.599578          6.69
     1.596094          0.83
     1.595650          6.92
     1.595022          1.47
     1.594586          0.84
     1.590981          0.68
     1.590886         61.27
     1.590408         18.37
     1.590147          8.89
     1.589120          6.51
     1.582408          0.06
     1.581457         30.71
     1.580189          5.67
     1.577771         17.27
     1.576558          5.05
     1.574461          0.03
     1.567410         15.87
     1.564063          6.99
     1.560156         27.04
     1.558202          0.03
     1.554159          0.03
     1.551948         27.62
     1.549215          2.75
     1.549090          5.55
     1.548750          7.69
     1.548672          6.24
     1.548331          1.77
     1.541119          4.06
     1.540378          0.56
     1.539037          4.64
     1.531305          0.00
     1.530578         22.71
     1.528357         51.50
     1.527154          4.74
     1.526054          2.13
     1.525473         12.53
     1.518888         48.56
     1.515582          0.02
     1.514714          4.36
     1.511305          2.89
     1.509742         20.03
     1.509490         27.43
     1.507790         49.24
     1.506134          1.24
     1.505020          1.12
     1.504493          5.75
     1.502952          8.27
     1.502264          2.24
     1.501101          5.47
     1.498615         20.33
     1.496970          0.12
     1.496505          3.26
     1.489415          3.45
     1.487638          5.80
     1.487564         20.32
     1.487232         32.80
     1.486721         15.16
     1.483227          0.01
     1.482719          0.19
     1.482652          2.86
     1.482310         11.90
     1.482213         38.47
     1.479725          7.37
     1.476164          2.01
     1.474288         65.68
     1.472478          1.04
     1.470449          7.52
     1.469707          0.13
     1.469270          1.95
     1.465479          1.61
     1.465476          8.65
     1.463832         47.74
     1.462863         19.49
     1.461216          9.30
     1.459006          0.39
     1.458377         14.69
     1.458306          5.93
     1.452865         22.74
     1.448664          1.71
     1.447600          5.19
     1.447270         13.22
     1.441553          0.98
     1.440840          6.16
     1.440100          2.65
     1.435441          1.16
     1.432210         18.47
     1.432201         38.58
     1.429216          0.02
     1.426757          1.08
     1.424912          1.69
     1.424112          3.79
     1.421471          0.13
     1.420734         10.74
     1.419333         10.07
     1.413319         15.65
     1.412746          1.08
     1.412311          9.99
     1.409598          3.10
     1.403739          5.19
     1.403491          0.34
     1.402931          1.78
     1.401971         11.50
     1.401918          3.61
     1.401504          2.75
     1.400694          5.67
     1.398997          9.76
     1.392919          0.01
     1.392084          0.01
     1.386638          2.39
     1.383460          0.32
     1.383015          0.14
     1.380114         26.82
     1.379886          0.30
     1.379752          0.58
     1.378896          1.28
     1.376914          0.65
     1.376552          2.25
     1.375909          7.95
     1.374519          2.05
     1.373788         29.26
     1.373591          3.91
     1.373065          6.04
     1.371146          0.27
     1.369325          0.96
     1.369301          0.38
     1.368925          5.07
     1.367735          0.74
     1.364236          2.94
     1.359060          1.27
     1.358675          0.45
     1.358565          0.07
     1.357783          5.39
     1.355939          0.08
     1.355231          2.21
     1.353016          2.71
     1.352235          1.38
     1.352212          9.56
     1.349939          0.25
     1.346647          2.11
     1.345853          2.57
     1.344724          0.24
     1.343947          0.35
     1.341355          4.66
     1.340628          0.00
     1.340140         13.98
     1.338753          2.78
     1.337942          1.45
     1.336082          0.64
     1.334869          0.00
     1.333422         28.55
     1.332937          0.02
     1.330039          4.13
     1.329090         11.53
     1.328781          3.19
     1.326438          0.15
     1.326282          3.63
     1.326017          6.32
     1.325916          9.51
     1.325414          0.05
     1.322884          0.47
     1.322747          0.98
     1.322526          0.10
     1.321686          1.03
     1.320797          8.93
     1.320687         20.13
     1.318808          1.03
     1.318099          0.09
     1.317407          0.22
     1.315962          0.24
     1.313276          0.01
     1.312716          1.97
     1.310771          4.79
     1.310755          0.04
     1.310127          2.61
     1.307413          0.03
     1.307187          0.02
     1.306635          1.71
     1.303893          5.29
     1.303615          1.43
     1.302473          8.16
     1.301920          2.68
     1.301909          0.82
     1.301535          0.93
     1.301462          4.31
     1.300887          0.00
     1.295986          3.89
     1.295788          0.12
     1.291425          0.15
     1.289539          3.02
     1.289417          2.10
     1.288887          2.34
     1.287805          5.60
     1.286160          1.23
     1.285633         12.21
     1.285187          0.00
     1.284059          8.99
     1.280959          0.00
     1.280712          2.16
     1.279837          0.33
     1.279088          0.03
     1.275622          0.76
     1.274651          4.57
     1.274170          1.75
     1.273751          2.26
     1.273558          4.20
     1.270234          0.86
     1.269081          0.45
     1.268790          0.08
     1.268716          0.01
     1.268287          8.15
     1.268248          8.59
     1.267240          2.08
     1.267018          0.84
     1.264234          0.84
     1.261790          0.10
     1.261519          9.54
     1.261345          0.17
     1.261046          0.25
     1.260849          1.98
     1.259312          0.93
     1.257165          0.19
     1.256677          0.72
     1.255442          0.08
     1.255139          0.14
     1.254183          0.21
     1.252801          1.00
     1.251999          1.96
     1.251264          2.04
     1.251226          0.41
     1.251030          1.39
     1.250356          8.70
     1.249832          1.09
     1.248440          0.61
     1.247646          0.73
     1.246624          1.17
     1.245069         14.97
     1.244816          1.49
     1.244219          0.28
     1.243700          4.17
     1.243443          1.47
     1.242670          0.37
     1.241947          8.89
     1.241544          3.34
     1.240566          0.00
     1.239708          0.35
     1.238811          0.79
     1.238050          0.25
     1.237843          7.05
     1.237550          0.87
     1.236133          0.10
     1.236110          0.74
     1.233022          5.83
     1.232630          5.83
     1.230963          2.46
     1.230584          0.00
     1.230204          0.18
     1.227978          0.31
     1.227006          0.16
     1.226253         10.74
     1.225342          0.03
     1.224955         15.49
     1.224501          3.63
     1.224121          2.71
     1.220193          2.17
     1.220113          0.33
     1.219776          1.08
     1.219740          0.09
     1.216222          0.26
     1.215560          8.15
     1.215110          0.02
     1.213781          0.03
     1.213211          1.59
     1.212863          4.01
     1.212020          1.05
     1.211381          0.56
     1.210728          3.08
     1.210580         10.17
     1.210282          6.06
     1.208969          0.05
     1.207165          1.36
     1.207070          6.24
     1.206796          0.15
     1.206714          3.93
     1.202862          3.40
     1.202721          2.59
     1.200702          0.11
     1.198401          1.23
     1.197197          0.83
     1.196715          0.21
     1.196479          5.41
     1.196299          0.03
     1.196137          0.49
     1.196044          0.28
     1.195920         10.23
##############################################################################
###                            Comments                                    ###
##############################################################################
###   Diffraction pattern calculated by Match!. 
###   I/Ic calculated by Match!. 
##############################################################################


