##############################################################################
###               Crystal structure data exported by Match!                ###
##############################################################################

data_1547819
_citation_journal_full    'Phys. Rev B'
_citation_journal_volume  '94'
_citation_page_first  '134108'
_citation_page_last   '134108'
_citation_year  '2016'
_citation_title  'Monazite-type SrCrO4 under compression'
loop_
_publ_author_name
  'Gleissner J.'
  'Errandonea D.'
_chemical_formula_sum  'Cr O4 Sr'
_chemical_name_common  'Strontium chromate(VI)'
_symmetry_space_group_name_H-M 'P 1 21/n 1'
_space_group_IT_number 14
_space_group_crystal_system 'monoclinic'
loop_
_symmetry_equiv_pos_as_xyz
   'x, y, z'
   '-x+0.5, y+0.5, -z+0.5'
   '-x, -y, -z'
   'x+0.5, -y+0.5, z+0.5'
_cell_length_a        7.06500
_cell_length_b        7.37600
_cell_length_c        6.74100
_cell_angle_alpha    90.0000
_cell_angle_beta    103.1000
_cell_angle_gamma    90.0000
_cell_formula_units_Z 4
loop_
_atom_site_label
_atom_site_fract_x
_atom_site_fract_y
_atom_site_fract_z
_atom_site_occupancy
_atom_site_B_iso_or_equiv
o      0.258   0.005   0.056    1.00000    13.420
o      0.120   0.337   0.002    1.00000    13.420
o      0.026   0.101   0.698    1.00000    13.420
o      0.378   0.218   0.788    1.00000    13.420
cr      0.198   0.165   0.887    1.00000    13.420
sr      0.228   0.159   0.398    1.00000    13.420
_cell_measurement_wavelength    1.541874
_cell_measurement_radiation   'x-rays'
_exptl_crystal_density_diffrn    3.952000
loop_
_pd_peak_d_spacing
_pd_peak_intensity
     5.400756         46.47
     5.031558        109.09
     4.904155         43.89
     4.357537         15.68
     4.289394          0.28
     3.707989         17.22
     3.688000        216.24
     3.440570        664.55
     3.282786         41.39
     3.250569       1000.00
     3.215444          2.12
     3.118040        139.09
     3.071638          1.75
     3.045638          0.38
     2.999159        667.09
     2.985066        249.60
     2.796470         11.62
     2.700378        153.94
     2.616018          0.63
     2.561915         54.60
     2.535782        121.72
     2.515779         39.08
     2.491215         11.00
     2.452078          0.00
     2.444358         15.36
     2.336531         34.58
     2.315310          4.03
     2.302516         49.25
     2.237698          1.88
     2.237172         47.35
     2.229032         27.97
     2.227444         37.60
     2.195277          0.00
     2.190256          4.35
     2.178768          2.33
     2.144697          0.32
     2.140865          1.21
     2.133094          8.91
     2.098117          0.79
     2.059406        143.92
     2.036809          8.90
     2.027049          4.61
     2.000392          3.03
     1.994263          0.24
     1.987977         13.07
     1.973753          2.38
     1.967918          0.01
     1.963921        112.59
     1.961146          3.69
     1.954583          6.47
     1.947739         48.66
     1.912760          0.78
     1.895298          0.00
     1.882087          9.57
     1.853994          1.32
     1.846895          7.57
     1.844000         11.46
     1.837456         46.59
     1.827558         62.52
     1.818000          3.24
     1.806037          1.53
     1.800252          2.87
     1.781154         27.52
     1.776407          0.11
     1.775309          0.16
     1.748914          0.83
     1.745085          1.15
     1.731550          0.02
     1.720285          7.28
     1.716620          0.43
     1.694089          0.29
     1.693709          0.18
     1.689264         13.34
     1.677186          6.16
     1.675324          9.26
     1.663324          5.75
     1.654696          0.01
     1.646632          2.52
     1.642798          1.90
     1.641393          6.16
     1.639910          0.00
     1.634718          0.47
     1.632166          3.53
     1.625284          3.60
     1.618604          0.00
     1.617797          0.11
     1.616209          0.10
     1.607722          0.37
     1.605541          1.35
     1.605217         10.08
     1.602202          2.70
     1.593616          6.73
     1.592133          1.10
     1.584142          0.05
     1.564033          0.00
     1.559020          0.00
     1.549336          0.75
     1.543729          0.06
     1.539681          0.20
     1.535819          1.59
     1.533157          0.50
     1.532706          5.56
     1.530361          1.79
     1.528423          0.12
     1.522819          1.73
     1.499619          0.78
     1.499579          1.16
     1.492533          0.62
     1.489379          0.01
     1.475666          1.69
     1.452512          0.04
     1.451314          0.35
     1.447514          0.28
     1.442425          0.09
     1.439316          0.05
     1.437158          3.05
     1.433852          1.03
     1.429798          0.68
     1.423068          0.21
     1.422933          0.27
     1.414480          0.71
     1.412784          0.11
     1.410168          0.26
     1.409523          0.00
     1.405877          6.06
     1.403669          0.01
     1.402354          5.14
     1.398950          0.87
     1.398235          0.07
     1.395005          0.45
     1.394326          1.01
     1.392307          0.00
     1.391100          2.06
     1.389987          3.31
     1.388236          0.02
     1.387561          0.56
     1.377316          0.12
     1.374448          1.68
     1.366001          2.62
     1.365137          0.16
     1.364038          0.01
     1.362317          0.04
     1.359814          0.02
     1.355827          1.04
     1.352881          0.96
     1.351942          0.01
     1.350189          0.33
     1.347289          0.01
     1.345581          3.10
     1.344302          0.13
     1.343411          0.03
     1.343162          0.00
     1.333118          0.00
     1.328423          0.50
     1.328121          2.88
     1.325361          0.31
     1.319295          0.09
     1.310269          0.15
     1.308009          0.14
     1.306032          0.26
     1.304927          0.02
     1.300001          0.11
     1.298053          0.41
     1.297540          1.62
     1.294614          1.30
     1.293314          0.16
     1.292788          0.01
     1.289547          0.30
     1.289379          0.66
     1.288159          0.05
     1.286028          0.01
     1.284304          2.56
     1.280957          0.50
     1.275090          0.21
     1.270487          0.05
     1.270279          0.53
     1.267891          0.09
     1.265489          0.01
     1.257889          0.29
     1.252786          0.05
     1.252331          0.01
     1.252050          0.04
     1.247387          0.20
     1.245608          0.15
     1.243945          0.65
     1.242690          0.19
     1.240742          0.06
     1.239163          0.05
     1.237042          0.01
     1.235996          0.00
     1.231553          0.01
     1.231116          0.00
     1.229333          0.75
     1.226039          0.36
     1.224956          0.01
     1.223250          0.02
     1.222179          0.27
     1.222038          0.24
     1.217278          0.03
     1.215906          0.02
     1.215436          1.08
     1.210740          0.02
     1.210173          0.02
     1.208335          0.02
     1.207825          0.05
     1.207483          0.08
     1.201620          0.05
     1.201208          0.01
     1.200897          0.84
     1.199236          0.08
     1.198673          0.10
     1.195204          0.04
     1.194084          0.00
     1.192772          0.18
     1.183479          0.01
     1.181757          0.01
     1.181525          0.00
     1.181087          0.15
     1.178906          0.02
     1.178202          0.04
     1.174631          0.00
     1.173216          0.44
     1.170795          0.08
     1.168265          0.37
     1.166478          0.04
     1.165969          0.02
     1.162876          0.03
     1.161992          0.18
     1.161166          0.01
     1.158273          0.05
     1.157655          0.67
     1.155234          0.01
     1.153882          0.05
     1.153404          0.00
     1.151258          0.12
     1.150741          0.33
     1.150456          0.01
     1.146857          0.04
     1.142001          0.00
     1.141037          0.00
     1.138125          0.00
     1.133240          0.26
     1.131925          0.01
     1.129998          0.04
     1.129927          0.04
     1.128701          0.02
     1.125486          0.01
     1.124579          0.01
     1.121803          0.10
     1.121473          0.00
     1.121066          0.00
     1.120268          0.03
     1.119840          0.16
     1.118849          0.16
     1.118586          0.24
     1.116235          0.01
     1.114516          0.10
     1.113722          0.05
     1.113275          0.00
     1.111148          0.09
     1.109967          0.01
     1.109076          0.00
     1.108082          0.05
     1.108018          0.24
     1.106566          0.00
     1.105941          0.06
     1.102924          0.03
     1.097639          0.11
     1.097190          0.07
     1.095980          0.02
     1.095128          0.00
     1.094421          0.13
     1.094262          0.05
     1.092201          0.01
     1.089384          0.02
     1.087940          0.02
     1.087859          0.00
     1.086525          0.00
     1.083523          0.01
     1.082415          0.09
     1.080151          0.00
     1.079467          0.00
     1.077855          0.00
     1.077387          0.03
     1.077078          0.08
     1.077030          0.01
     1.076460          0.00
     1.075886          0.23
     1.072374          0.17
     1.072348          0.09
     1.071815          0.00
     1.070433          0.04
     1.069629          0.00
     1.068752          0.01
     1.066547          0.01
     1.065791          0.03
     1.064422          0.03
     1.063370          0.01
     1.062506          0.00
     1.062067          0.10
     1.061628          0.04
     1.061192          0.00
     1.060763          0.06
     1.059605          0.00
     1.058845          0.00
     1.057175          0.00
     1.056775          0.01
     1.055202          0.00
     1.053884          0.02
     1.051135          0.00
     1.050799          0.02
     1.049058          0.01
     1.048838          0.10
     1.046209          0.00
     1.044153          0.03
     1.043634          0.10
     1.042270          0.00
     1.041608          0.03
     1.041573          0.00
     1.040401          0.01
     1.039347          0.00
     1.036844          0.04
     1.036606          0.00
     1.035706          0.07
     1.034265          0.04
     1.034214          0.00
     1.032018          0.02
     1.029703          0.03
     1.028509          0.00
     1.026696          0.00
     1.025644          0.00
     1.023879          0.00
     1.023290          0.00
     1.020341          0.03
     1.020200          0.00
     1.019992          0.01
     1.019835          0.02
     1.018405          0.00
     1.018166          0.00
     1.015213          0.03
     1.015093          0.06
     1.013525          0.02
     1.012357          0.06
     1.010177          0.00
     1.008778          0.00
     1.007522          0.01
##############################################################################
###                            Comments                                    ###
##############################################################################
###   Synthetic
###   Diffraction pattern calculated by Match!. 
###   I/Ic calculated by Match!. 
##############################################################################


