##############################################################################
###               Crystal structure data exported by Match!                ###
##############################################################################
###                           Data published by:                           ###
###                                                                        ###
###               COD (Crystallography Open Database)
##############################################################################
data_1514230
_citation_journal_full    'Skrifter utgitt av det Norske Videnskaps-Akademi i Oslo 1: Matematisk-Naturvidenskapelig Klasse'
_citation_page_first  '1'
_citation_page_last   '165'
_citation_year  '1928'
_citation_title  'Untersuchungen \"uber die Kristallstrukturen von Sesquioxiden undVerbindungen ABO~3~'
loop_
_publ_author_name
  'Zachariasen W. H.'
_chemical_formula_sum  'Mn2 O3'
_chemical_name_mineral  'Bixbyite'
_chemical_name_common  'Manganese Oxide (2/3)'
_symmetry_space_group_name_H-M 'I a -3'
_space_group_IT_number 206
_space_group_crystal_system 'cubic'
loop_
_symmetry_equiv_pos_as_xyz
   'x, y, z'
   'x+0.5, y+0.5, z+0.5'
   'z, x, y'
   'z+0.5, x+0.5, y+0.5'
   'y, z, x'
   'y+0.5, z+0.5, x+0.5'
   '-y, -z+0.5, x'
   '-y+0.5, -z, x+0.5'
   'z, -x, -y+0.5'
   'z+0.5, -x+0.5, -y'
   '-y+0.5, z, -x'
   '-y, z+0.5, -x+0.5'
   '-z, -x+0.5, y'
   '-z+0.5, -x, y+0.5'
   '-z+0.5, x, -y'
   '-z, x+0.5, -y+0.5'
   'y, -z, -x+0.5'
   'y+0.5, -z+0.5, -x'
   '-x, -y+0.5, z'
   '-x+0.5, -y, z+0.5'
   'x, -y, -z+0.5'
   'x+0.5, -y+0.5, -z'
   '-x+0.5, y, -z'
   '-x, y+0.5, -z+0.5'
   '-x, -y, -z'
   '-x+0.5, -y+0.5, -z+0.5'
   '-z, -x, -y'
   '-z+0.5, -x+0.5, -y+0.5'
   '-y, -z, -x'
   '-y+0.5, -z+0.5, -x+0.5'
   'y, z+0.5, -x'
   'y+0.5, z, -x+0.5'
   '-z, x, y+0.5'
   '-z+0.5, x+0.5, y'
   'y+0.5, -z, x'
   'y, -z+0.5, x+0.5'
   'z, x+0.5, -y'
   'z+0.5, x, -y+0.5'
   'z+0.5, -x, y'
   'z, -x+0.5, y+0.5'
   '-y, z, x+0.5'
   '-y+0.5, z+0.5, x'
   'x, y+0.5, -z'
   'x+0.5, y, -z+0.5'
   '-x, y, z+0.5'
   '-x+0.5, y+0.5, z'
   'x+0.5, -y, z'
   'x, -y+0.5, z+0.5'
_cell_length_a        9.41000
_cell_length_b        9.41000
_cell_length_c        9.41000
_cell_angle_alpha    90.0000
_cell_angle_beta     90.0000
_cell_angle_gamma    90.0000
_cell_formula_units_Z 16
loop_
_atom_site_label
_atom_site_fract_x
_atom_site_fract_y
_atom_site_fract_z
_atom_site_occupancy
_atom_site_B_iso_or_equiv
mn      0.000   0.000   0.000    1.00000    1.000
mn      0.285   0.000   0.250    1.00000    1.000
o      0.129   0.147   -0.083    1.00000    1.000
_cell_measurement_wavelength    1.541874
_cell_measurement_radiation   'x-rays'
_exptl_crystal_density_diffrn    5.034000
loop_
_pd_peak_d_spacing
_pd_peak_intensity
     4.705000         10.64
     3.841616        162.81
     3.326937          1.67
     2.716433       1000.00
     2.514928         16.26
     2.352500        178.60
     2.217958         12.01
     2.104140          9.15
     2.006219         92.94
     1.920808         13.63
     1.845453        123.57
     1.718023         28.40
     1.663469        347.23
     1.613802         17.08
     1.568333          5.46
     1.526504         39.97
     1.487852         12.12
     1.451994         64.91
     1.418611        188.70
     1.387429         47.65
     1.358216         30.43
     1.330775          7.62
     1.304932         14.26
     1.280539         25.57
     1.257464         10.94
     1.195071         12.21
     1.176250         24.08
     1.158291         27.28
     1.141130         17.50
     1.124710         20.16
     1.108979          9.68
     1.093890         15.00
     1.079401         40.56
     1.065473          2.77
     1.052070         30.47
     1.039161          5.96
     1.026715          6.14
     1.014706         16.53
##############################################################################
###                            Comments                                    ###
##############################################################################
###   Diffraction pattern calculated by Match!. 
###   I/Ic calculated by Match!. 
##############################################################################


