##############################################################################
###               Crystal structure data exported by Match!                ###
##############################################################################
###                           Data published by:                           ###
###                                                                        ###
###               COD (Crystallography Open Database)
##############################################################################
data_1100020
_citation_journal_full    'Acta Crystallographica (1,1948-23,1967)'
_citation_journal_volume  '16'
_citation_page_first  'A22'
_citation_page_last   'A22'
_citation_year  '1963'
_citation_title  'The structure of the red modification of tin(II)oxide'
loop_
_publ_author_name
  'Donaldson J D'
  'Moser W'
  'Simpson W B'
_chemical_formula_sum  'O Sn'
_chemical_name_common  'Tin (II) oxide - red modification'
_symmetry_space_group_name_H-M 'C m c 21'
_space_group_IT_number 36
_space_group_crystal_system 'orthorhombic'
loop_
_symmetry_equiv_pos_as_xyz
   'x, y, z'
   'x+0.5, y+0.5, z'
   '-x, -y, z+0.5'
   '-x+0.5, -y+0.5, z+0.5'
   '-x, y, z'
   '-x+0.5, y+0.5, z'
   'x, -y, z+0.5'
   'x+0.5, -y+0.5, z+0.5'
_cell_length_a        5.00000
_cell_length_b        5.72000
_cell_length_c       11.12000
_cell_angle_alpha    90.0000
_cell_angle_beta     90.0000
_cell_angle_gamma    90.0000
_cell_formula_units_Z 8
loop_
_atom_site_label
_atom_site_fract_x
_atom_site_fract_y
_atom_site_fract_z
_atom_site_occupancy
_atom_site_B_iso_or_equiv
sn      0.000   0.000   0.000    1.00000    1.000
sn      0.000   0.441   0.254    1.00000    1.000
o      0.180   0.250   0.380    1.00000    1.000
_cell_measurement_wavelength    1.541874
_cell_measurement_radiation   'x-rays'
_exptl_crystal_density_diffrn    5.626000
loop_
_pd_peak_d_spacing
_pd_peak_intensity
     5.560000         37.80
     3.764514          1.02
     3.565728         81.88
     3.117216       1000.00
     2.860000        110.54
     2.780000        142.35
     2.769855         43.89
     2.641224         13.89
     2.543257          8.95
     2.500000        118.24
     2.280111          0.80
     2.264328         23.94
     2.236310          1.42
     1.993439        137.27
     1.914809          5.41
     1.882257        102.32
     1.858900        126.48
     1.855858         24.69
     1.853333          0.13
     1.782864          5.23
     1.781531          7.27
     1.759098         30.64
     1.755652         10.13
     1.696566         81.55
     1.678271         17.18
     1.662750        135.05
     1.605697         30.01
     1.600125          0.07
     1.583812          2.05
     1.558608         72.16
     1.555322          2.96
     1.537712        100.92
     1.499961          7.74
     1.488837          1.01
     1.469084          6.51
     1.463595          4.24
     1.436758          9.47
     1.430000          8.66
     1.418320          9.79
     1.390431         16.84
     1.390000         22.05
     1.388727          4.14
     1.386808          0.25
     1.384928          8.11
     1.334158          7.68
     1.320612          0.91
     1.303951          0.60
     1.298876          3.74
     1.284366         27.60
     1.271628          5.04
     1.254838          1.89
     1.250169         14.07
     1.250000         11.54
     1.246924         12.89
     1.241282          5.38
     1.233620         11.30
     1.224051         23.00
     1.219559          0.00
     1.214849         18.70
     1.213999          4.89
     1.211459          8.85
     1.211167         39.42
     1.202815          5.13
     1.188576          5.90
     1.185663          6.88
     1.177037          9.47
     1.173942          1.68
     1.145380         13.61
     1.143722          2.71
     1.140055         17.60
     1.139352          3.88
     1.134237          1.91
     1.133430         12.18
     1.132164          3.33
     1.127352          0.55
     1.121824          0.61
     1.118155         27.21
     1.115183          6.46
     1.112000          0.37
     1.109617          8.06
     1.095897          2.45
     1.094326          3.39
     1.093406          3.86
     1.092879          4.55
     1.083889          7.16
     1.067899          5.66
     1.066446         25.26
     1.062816          3.38
     1.059018         19.50
     1.049360          0.28
     1.039072         13.26
     1.036416          0.17
     1.036320          0.11
     1.035012         10.35
     1.032902          2.88
     1.031336          5.59
     1.018273          2.78
     1.016024          0.06
     1.015280          4.35
##############################################################################
###                            Comments                                    ###
##############################################################################
###   Diffraction pattern calculated by Match!. 
###   I/Ic calculated by Match!. 
###   Space group has been derived from given symmetry operations. 
##############################################################################


