##############################################################################
###               Crystal structure data exported by Match!                ###
##############################################################################
###                           Data published by:                           ###
###                                                                        ###
###               COD (Crystallography Open Database)
##############################################################################
data_9003320
_citation_journal_full    'American Mineralogist'
_citation_journal_volume  '89'
_citation_page_first  '359'
_citation_page_last   '364'
_citation_year  '2004'
_citation_title  'Sodalite: High-temperature structures obtained from synchrotron radiationand Rietveld refinementsSample: T = 58 C'
loop_
_publ_author_name
  'Hassan I.'
  'Antao S. M.'
  'Parise J. B.'
_chemical_formula_sum  'Al3 Cl Na4 O12 Si3'
_chemical_name_mineral  'Sodalite'
_symmetry_space_group_name_H-M 'P -4 3 n'
_space_group_IT_number 218
_space_group_crystal_system 'cubic'
loop_
_symmetry_equiv_pos_as_xyz
   'x, y, z'
   'y+0.5, -x+0.5, -z+0.5'
   '-x, -y, z'
   '-y+0.5, x+0.5, -z+0.5'
   '-x+0.5, z+0.5, -y+0.5'
   'x, -y, -z'
   '-x+0.5, -z+0.5, y+0.5'
   '-z+0.5, -y+0.5, x+0.5'
   '-x, y, -z'
   'z+0.5, -y+0.5, -x+0.5'
   'z, x, y'
   'y, z, x'
   '-y, -z, x'
   'z, -x, -y'
   '-y, z, -x'
   '-z, -x, y'
   '-z, x, -y'
   'y, -z, -x'
   '-y+0.5, -x+0.5, z+0.5'
   'y+0.5, x+0.5, z+0.5'
   'x+0.5, -z+0.5, -y+0.5'
   'x+0.5, z+0.5, y+0.5'
   '-z+0.5, y+0.5, -x+0.5'
   'z+0.5, y+0.5, x+0.5'
_cell_length_a        8.88850
_cell_length_b        8.88850
_cell_length_c        8.88850
_cell_angle_alpha    90.0000
_cell_angle_beta     90.0000
_cell_angle_gamma    90.0000
loop_
_atom_site_label
_atom_site_fract_x
_atom_site_fract_y
_atom_site_fract_z
_atom_site_occupancy
_atom_site_B_iso_or_equiv
na      0.178   0.178   0.178    1.00000    1.437
al      0.250   0.000   0.500    1.00000    0.393
si      0.250   0.500   0.000    1.00000    0.393
o      0.140   0.150   0.439    1.00000    0.205
cl      0.000   0.000   0.000    1.00000    2.013
_cell_measurement_wavelength    1.541874
_cell_measurement_radiation   'x-rays'
_cell_measurement_temperature    331.100000
_exptl_crystal_density_diffrn    2.292000
loop_
_pd_peak_d_spacing
_pd_peak_intensity
     6.285119        328.96
     4.444250         56.70
     3.975058         10.88
     3.628715       1000.00
     3.142559          0.53
     2.810791         89.99
     2.565889        186.71
     2.465226          0.20
     2.375552        202.68
     2.222125         13.89
     2.155778          0.25
     2.095040        326.33
     1.987529         47.07
     1.939630          0.29
     1.895035         36.32
     1.814358         33.77
     1.777700          0.09
     1.743178         37.27
     1.650553          2.27
     1.622811         29.63
     1.571280        110.06
     1.524365         58.84
     1.502431          0.77
     1.481417        101.69
     1.461260          0.35
     1.441905        101.70
     1.405395          6.07
     1.388151          0.43
     1.371525         38.82
     1.339992         38.38
     1.325019          0.46
     1.310538         43.31
     1.282944         30.61
     1.269786          0.03
     1.257024          2.31
     1.232613          7.08
     1.220929          0.50
     1.209572         97.85
     1.187776          7.80
     1.167117         24.22
     1.157184          0.20
     1.138056          0.69
     1.128841         43.05
     1.111063          5.15
     1.102483          0.24
     1.094099         24.83
     1.077889         24.11
     1.070050          0.50
     1.062379          3.60
     1.047520          5.70
     1.040320          0.06
     1.033267          4.61
     1.026356          0.44
     1.019581         23.36
     1.012939          1.16
     1.006424         12.83
##############################################################################
###                            Comments                                    ###
##############################################################################
###   Diffraction pattern calculated by Match!. 
###   I/Ic calculated by Match!. 
###   Space group has been derived from given symmetry operations. 
##############################################################################


