##############################################################################
###               Crystal structure data exported by Match!                ###
##############################################################################
###                           Data published by:                           ###
###                                                                        ###
###               COD (Crystallography Open Database)
##############################################################################
data_1538531
_citation_journal_full    'Journal of Physics and Chemistry of Solids'
_citation_journal_volume  '25'
_citation_page_first  '1'
_citation_page_last   '10'
_citation_year  '1964'
_citation_title  'The magnetic structure of Co3 O4'
loop_
_publ_author_name
  'Roth W.L.'
_chemical_formula_sum  'Co3 O4'
_chemical_name_common  'Co3 O4'
_symmetry_space_group_name_H-M 'F d -3 m'
_space_group_IT_number 227
_space_group_crystal_system 'cubic'
loop_
_symmetry_equiv_pos_as_xyz
   'x, y, z'
   'x+0.5, y+0.5, z'
   'x+0.5, y, z+0.5'
   'x, y+0.5, z+0.5'
   '-x+0.25, -y+0.25, -z+0.25'
   '-x+0.75, -y+0.75, -z+0.25'
   '-x+0.75, -y+0.25, -z+0.75'
   '-x+0.25, -y+0.75, -z+0.75'
   '-y+0.25, x+0.25, z+0.25'
   '-y+0.75, x+0.75, z+0.25'
   '-y+0.75, x+0.25, z+0.75'
   '-y+0.25, x+0.75, z+0.75'
   '-x, -y, z'
   '-x+0.5, -y+0.5, z'
   '-x+0.5, -y, z+0.5'
   '-x, -y+0.5, z+0.5'
   'y+0.25, -x+0.25, z+0.25'
   'y+0.75, -x+0.75, z+0.25'
   'y+0.75, -x+0.25, z+0.75'
   'y+0.25, -x+0.75, z+0.75'
   'x+0.25, -z+0.25, y+0.25'
   'x+0.75, -z+0.75, y+0.25'
   'x+0.75, -z+0.25, y+0.75'
   'x+0.25, -z+0.75, y+0.75'
   'x, -y, -z'
   'x+0.5, -y+0.5, -z'
   'x+0.5, -y, -z+0.5'
   'x, -y+0.5, -z+0.5'
   'x+0.25, z+0.25, -y+0.25'
   'x+0.75, z+0.75, -y+0.25'
   'x+0.75, z+0.25, -y+0.75'
   'x+0.25, z+0.75, -y+0.75'
   'z+0.25, y+0.25, -x+0.25'
   'z+0.75, y+0.75, -x+0.25'
   'z+0.75, y+0.25, -x+0.75'
   'z+0.25, y+0.75, -x+0.75'
   '-x, y, -z'
   '-x+0.5, y+0.5, -z'
   '-x+0.5, y, -z+0.5'
   '-x, y+0.5, -z+0.5'
   '-z+0.25, y+0.25, x+0.25'
   '-z+0.75, y+0.75, x+0.25'
   '-z+0.75, y+0.25, x+0.75'
   '-z+0.25, y+0.75, x+0.75'
   'y, -x, -z'
   'y+0.5, -x+0.5, -z'
   'y+0.5, -x, -z+0.5'
   'y, -x+0.5, -z+0.5'
   '-y, x, -z'
   '-y+0.5, x+0.5, -z'
   '-y+0.5, x, -z+0.5'
   '-y, x+0.5, -z+0.5'
   '-x, z, -y'
   '-x+0.5, z+0.5, -y'
   '-x+0.5, z, -y+0.5'
   '-x, z+0.5, -y+0.5'
   '-x, -z, y'
   '-x+0.5, -z+0.5, y'
   '-x+0.5, -z, y+0.5'
   '-x, -z+0.5, y+0.5'
   '-z, -y, x'
   '-z+0.5, -y+0.5, x'
   '-z+0.5, -y, x+0.5'
   '-z, -y+0.5, x+0.5'
   'z, -y, -x'
   'z+0.5, -y+0.5, -x'
   'z+0.5, -y, -x+0.5'
   'z, -y+0.5, -x+0.5'
   'z, x, y'
   'z+0.5, x+0.5, y'
   'z+0.5, x, y+0.5'
   'z, x+0.5, y+0.5'
   'y, z, x'
   'y+0.5, z+0.5, x'
   'y+0.5, z, x+0.5'
   'y, z+0.5, x+0.5'
   '-y, -z, x'
   '-y+0.5, -z+0.5, x'
   '-y+0.5, -z, x+0.5'
   '-y, -z+0.5, x+0.5'
   'z, -x, -y'
   'z+0.5, -x+0.5, -y'
   'z+0.5, -x, -y+0.5'
   'z, -x+0.5, -y+0.5'
   '-y, z, -x'
   '-y+0.5, z+0.5, -x'
   '-y+0.5, z, -x+0.5'
   '-y, z+0.5, -x+0.5'
   '-z, -x, y'
   '-z+0.5, -x+0.5, y'
   '-z+0.5, -x, y+0.5'
   '-z, -x+0.5, y+0.5'
   '-z, x, -y'
   '-z+0.5, x+0.5, -y'
   '-z+0.5, x, -y+0.5'
   '-z, x+0.5, -y+0.5'
   'y, -z, -x'
   'y+0.5, -z+0.5, -x'
   'y+0.5, -z, -x+0.5'
   'y, -z+0.5, -x+0.5'
   '-z+0.25, -x+0.25, -y+0.25'
   '-z+0.75, -x+0.75, -y+0.25'
   '-z+0.75, -x+0.25, -y+0.75'
   '-z+0.25, -x+0.75, -y+0.75'
   '-y+0.25, -z+0.25, -x+0.25'
   '-y+0.75, -z+0.75, -x+0.25'
   '-y+0.75, -z+0.25, -x+0.75'
   '-y+0.25, -z+0.75, -x+0.75'
   'y+0.25, z+0.25, -x+0.25'
   'y+0.75, z+0.75, -x+0.25'
   'y+0.75, z+0.25, -x+0.75'
   'y+0.25, z+0.75, -x+0.75'
   '-z+0.25, x+0.25, y+0.25'
   '-z+0.75, x+0.75, y+0.25'
   '-z+0.75, x+0.25, y+0.75'
   '-z+0.25, x+0.75, y+0.75'
   'y+0.25, -z+0.25, x+0.25'
   'y+0.75, -z+0.75, x+0.25'
   'y+0.75, -z+0.25, x+0.75'
   'y+0.25, -z+0.75, x+0.75'
   'z+0.25, x+0.25, -y+0.25'
   'z+0.75, x+0.75, -y+0.25'
   'z+0.75, x+0.25, -y+0.75'
   'z+0.25, x+0.75, -y+0.75'
   'z+0.25, -x+0.25, y+0.25'
   'z+0.75, -x+0.75, y+0.25'
   'z+0.75, -x+0.25, y+0.75'
   'z+0.25, -x+0.75, y+0.75'
   '-y+0.25, z+0.25, x+0.25'
   '-y+0.75, z+0.75, x+0.25'
   '-y+0.75, z+0.25, x+0.75'
   '-y+0.25, z+0.75, x+0.75'
   'y+0.25, x+0.25, -z+0.25'
   'y+0.75, x+0.75, -z+0.25'
   'y+0.75, x+0.25, -z+0.75'
   'y+0.25, x+0.75, -z+0.75'
   '-y+0.25, -x+0.25, -z+0.25'
   '-y+0.75, -x+0.75, -z+0.25'
   '-y+0.75, -x+0.25, -z+0.75'
   '-y+0.25, -x+0.75, -z+0.75'
   '-x+0.25, z+0.25, y+0.25'
   '-x+0.75, z+0.75, y+0.25'
   '-x+0.75, z+0.25, y+0.75'
   '-x+0.25, z+0.75, y+0.75'
   '-x+0.25, -z+0.25, -y+0.25'
   '-x+0.75, -z+0.75, -y+0.25'
   '-x+0.75, -z+0.25, -y+0.75'
   '-x+0.25, -z+0.75, -y+0.75'
   'z+0.25, -y+0.25, x+0.25'
   'z+0.75, -y+0.75, x+0.25'
   'z+0.75, -y+0.25, x+0.75'
   'z+0.25, -y+0.75, x+0.75'
   '-z+0.25, -y+0.25, -x+0.25'
   '-z+0.75, -y+0.75, -x+0.25'
   '-z+0.75, -y+0.25, -x+0.75'
   '-z+0.25, -y+0.75, -x+0.75'
   'x+0.25, y+0.25, -z+0.25'
   'x+0.75, y+0.75, -z+0.25'
   'x+0.75, y+0.25, -z+0.75'
   'x+0.25, y+0.75, -z+0.75'
   '-x+0.25, y+0.25, z+0.25'
   '-x+0.75, y+0.75, z+0.25'
   '-x+0.75, y+0.25, z+0.75'
   '-x+0.25, y+0.75, z+0.75'
   'x+0.25, -y+0.25, z+0.25'
   'x+0.75, -y+0.75, z+0.25'
   'x+0.75, -y+0.25, z+0.75'
   'x+0.25, -y+0.75, z+0.75'
   '-y, -x, z'
   '-y+0.5, -x+0.5, z'
   '-y+0.5, -x, z+0.5'
   '-y, -x+0.5, z+0.5'
   'y, x, z'
   'y+0.5, x+0.5, z'
   'y+0.5, x, z+0.5'
   'y, x+0.5, z+0.5'
   'x, -z, -y'
   'x+0.5, -z+0.5, -y'
   'x+0.5, -z, -y+0.5'
   'x, -z+0.5, -y+0.5'
   'x, z, y'
   'x+0.5, z+0.5, y'
   'x+0.5, z, y+0.5'
   'x, z+0.5, y+0.5'
   '-z, y, -x'
   '-z+0.5, y+0.5, -x'
   '-z+0.5, y, -x+0.5'
   '-z, y+0.5, -x+0.5'
   'z, y, x'
   'z+0.5, y+0.5, x'
   'z+0.5, y, x+0.5'
   'z, y+0.5, x+0.5'
_cell_length_a        8.06500
_cell_length_b        8.06500
_cell_length_c        8.06500
_cell_angle_alpha    90.0000
_cell_angle_beta     90.0000
_cell_angle_gamma    90.0000
_cell_formula_units_Z 8
loop_
_atom_site_label
_atom_site_fract_x
_atom_site_fract_y
_atom_site_fract_z
_atom_site_occupancy
_atom_site_B_iso_or_equiv
co      0.625   0.625   0.625    1.00000    1.000
o      0.388   0.388   0.388    1.00000    1.000
co      0.000   0.000   0.000    1.00000    1.000
_cell_measurement_wavelength    1.541874
_cell_measurement_radiation   'x-rays'
_exptl_crystal_density_diffrn    6.097000
loop_
_pd_peak_d_spacing
_pd_peak_intensity
     4.656330        135.87
     2.851408        309.82
     2.431689       1000.00
     2.328165        104.32
     2.016250        183.96
     1.850238          1.62
     1.646261         87.57
     1.552110        322.76
     1.425704        362.31
     1.363234         12.72
     1.344167          0.29
     1.275188         27.73
     1.229901         77.72
     1.215844         43.95
     1.164082         20.31
     1.129326          7.54
     1.077731         36.22
     1.049974        116.16
     1.008125         43.15
     0.985297          0.05
     0.978025          0.06
     0.950469         20.12
     0.931266         80.21
     0.925119         22.86
     0.901694         27.57
     0.885249          4.68
     0.879964          0.48
     0.859732          8.21
     0.845442         86.97
     0.823131        166.71
     0.810563          4.03
     0.790838         58.50
##############################################################################
###                            Comments                                    ###
##############################################################################
###   Diffraction pattern calculated by Match!. 
###   I/Ic calculated by Match!. 
###   Space group has been derived from given symmetry operations. 
###   Ambiguous space group information in source file. 
##############################################################################


