##############################################################################
###               Crystal structure data exported by Match!                ###
##############################################################################
###                           Data published by:                           ###
###                                                                        ###
###               COD (Crystallography Open Database)
##############################################################################
data_1544375
_citation_journal_full    'Z. Kristallogr.'
_citation_journal_volume  '222'
_citation_page_first  '1'
_citation_page_last   '12'
_citation_year  '2007'
_citation_title  'Crystal structures of high-pressure phases in the alumina-water system:I. single crystal X-ray diffraction and molecular dynamics simulation ofeta-Al(OH)3'
loop_
_publ_author_name
  'Komatsu K.'
  'Kuribayashi T.'
  'Kudoh Y.'
  'Kagi H.'
_chemical_formula_sum  'Al H3 O3'
_chemical_name_mineral  'Gibbsite'
_chemical_name_common  'Al(OH)3 gibbsite'
_symmetry_space_group_name_H-M 'P 1 21/n 1'
_space_group_IT_number 14
_space_group_crystal_system 'monoclinic'
loop_
_symmetry_equiv_pos_as_xyz
   'x, y, z'
   '-x+0.5, y+0.5, -z+0.5'
   '-x, -y, -z'
   'x+0.5, -y+0.5, z+0.5'
_cell_length_a        8.67500
_cell_length_b        5.06900
_cell_length_c        9.72600
_cell_angle_alpha    90.0000
_cell_angle_beta     94.5500
_cell_angle_gamma    90.0000
_cell_formula_units_Z 8
loop_
_atom_site_label
_atom_site_fract_x
_atom_site_fract_y
_atom_site_fract_z
_atom_site_occupancy
_atom_site_B_iso_or_equiv
al      0.168   0.529   -0.002    1.00000    0.547
al      0.334   0.024   -0.002    1.00000    0.560
o      0.178   0.218   -0.112    1.00000    0.725
o      0.669   0.656   -0.103    1.00000    0.682
o      0.498   0.130   -0.104    1.00000    0.736
o      -0.020   0.629   -0.107    1.00000    0.669
o      0.297   0.718   -0.106    1.00000    0.756
o      0.819   0.149   -0.102    1.00000    0.708
h      0.098   0.153   -0.127    1.00000    2.763
h      0.595   0.570   -0.103    1.00000    3.237
h      0.498   0.107   -0.192    1.00000    2.052
h      -0.056   0.778   -0.117    1.00000    4.737
h      0.294   0.718   -0.188    1.00000    2.368
h      0.807   0.152   -0.189    1.00000    1.263
_cell_measurement_wavelength    1.541874
_cell_measurement_radiation   'x-rays'
_exptl_crystal_density_diffrn    2.430000
loop_
_pd_peak_d_spacing
_pd_peak_intensity
     6.723964          0.00
     6.213354          1.05
     4.847674       1000.00
     4.492091          0.32
     4.373086        370.91
     4.323830        177.26
     4.047667          0.04
     3.927725          0.04
     3.503455          0.06
     3.361982         59.87
     3.313889        106.87
     3.289630          1.22
     3.184187         82.35
     3.174030          5.49
     3.109250          0.11
     3.106677         39.18
     3.059517          3.32
     2.951482          0.45
     2.824915          2.03
     2.801757          3.42
     2.725055          0.22
     2.705024          6.26
     2.650381          0.08
     2.648787          8.36
     2.550617          0.09
     2.534500          0.72
     2.505737          1.06
     2.467598         72.82
     2.452099        139.36
     2.432191          0.37
     2.423837         32.77
     2.386482        202.60
     2.378271          5.61
     2.371614          3.70
     2.346767         10.00
     2.291341         47.58
     2.246045         72.63
     2.241321          5.65
     2.238833          3.66
     2.193623          3.30
     2.189683          7.63
     2.186705          0.27
     2.186543          0.02
     2.165865        100.11
     2.161915          0.34
     2.156984         13.08
     2.154732          3.99
     2.151577          0.55
     2.114843          0.14
     2.084812          9.49
     2.071118          1.42
     2.049878        157.26
     2.046189          5.50
     2.035442          4.74
     2.023834          9.41
     2.010150          3.52
     1.994349        116.99
     1.988604          2.27
     1.976646          2.37
     1.964512          4.95
     1.963863         15.23
     1.924970          0.00
     1.922835          2.76
     1.920659          2.58
     1.918657         10.01
     1.917257         74.48
     1.903386          0.55
     1.897430          4.51
     1.888851          0.62
     1.886508          0.70
     1.860833          0.20
     1.849510          1.33
     1.845680          0.54
     1.811082          0.04
     1.805474        141.01
     1.804153          0.43
     1.799577          0.29
     1.794417          3.69
     1.778184          0.06
     1.751727        126.67
     1.751665          5.14
     1.746847          0.15
     1.740959          0.06
     1.736337         11.73
     1.726497          0.03
     1.716395          0.49
     1.698019         11.86
     1.685046        125.52
     1.680991         12.41
     1.679771          0.00
     1.678984          1.19
     1.671496          0.03
     1.664577          0.00
     1.658308          6.58
     1.656945         27.58
     1.644815          9.75
     1.641051          2.23
     1.638719          3.42
     1.638029          0.67
     1.636875         11.58
     1.634301          1.34
     1.630454          2.17
     1.628032          0.10
     1.615891          0.00
     1.605741          3.54
     1.603752          0.70
     1.595545          0.70
     1.595525          0.07
     1.594502          3.57
     1.592093         25.77
     1.587419          0.02
     1.587395         10.56
     1.587015          9.40
     1.577859          0.00
     1.576403          6.29
     1.573770         21.20
     1.561783          6.36
     1.560580          0.32
     1.554625          1.94
     1.553339         11.49
     1.552875          0.11
     1.546392          0.06
     1.540045          0.95
     1.536592          0.23
     1.535890          4.30
     1.532952          0.68
     1.529759          6.07
     1.516719          6.25
     1.509722          8.79
     1.506559          4.29
     1.503011          2.05
     1.499964          0.90
     1.497364          0.07
     1.496335          5.36
     1.486295          0.22
     1.485171          0.78
     1.484766          5.45
     1.484611          3.92
     1.484331          5.02
     1.480552          0.01
     1.476934          0.08
     1.475741          3.08
     1.466376          2.39
     1.460290          0.14
     1.457695         99.07
     1.450072          0.02
     1.441897          0.21
     1.441277         55.60
     1.433066          0.07
     1.431376          1.71
     1.431282          0.26
     1.428603          0.52
     1.426890          0.13
     1.422712          0.13
     1.417971          1.47
     1.416915          0.31
     1.412457         32.52
     1.411654         39.03
     1.406374          5.17
     1.402778         51.79
     1.400878          5.03
     1.400172          0.14
     1.399110          0.23
     1.395369          0.02
     1.395352          1.33
     1.387282          0.00
     1.386327          2.11
     1.386112          0.00
     1.384883          0.01
     1.380758         18.65
     1.378449          4.86
     1.362528         34.70
     1.360623          1.14
     1.359982          4.31
     1.359041          4.75
     1.357926          0.23
     1.352512          6.82
     1.350986          0.25
     1.349222          0.04
     1.346619          1.01
     1.346542          6.68
     1.344793          0.05
     1.340287          0.00
     1.339493          0.03
     1.337705          0.50
     1.336072          0.00
     1.335922          0.05
     1.332292          4.97
     1.331298         16.62
     1.327692          0.19
     1.325190         10.38
     1.324393          3.85
     1.324106          0.05
     1.317261         31.29
     1.311614          3.51
     1.310806          0.18
     1.310324          0.53
     1.309242          0.07
     1.306794          0.24
     1.305418          0.06
     1.304998          0.02
     1.302876          0.15
     1.301407          0.38
     1.300088          7.49
     1.299828          0.02
     1.293433          0.00
     1.288968          0.39
     1.284380          0.66
     1.276078          0.00
     1.275309          6.03
     1.273886          0.00
     1.271930          0.19
     1.269864          0.00
     1.268046          2.22
     1.267606          2.21
     1.267250          0.70
     1.264971          0.04
     1.256562          2.32
     1.253858          3.44
     1.253573          1.33
     1.252868          4.74
     1.252686          0.34
     1.250921          0.19
     1.249826          0.00
     1.249213         14.53
     1.247710          2.24
     1.245326          2.28
     1.245035          0.71
     1.242671          0.02
     1.241687          2.10
     1.240228          0.02
     1.239595          0.03
     1.237846          0.06
     1.233799          7.10
     1.231788          7.93
     1.227630          0.00
     1.226050          6.00
     1.218576          0.22
     1.217309          3.85
     1.216095          9.34
     1.215405         11.80
     1.215293          1.62
     1.213461          0.22
     1.211919         18.83
     1.211548          0.00
     1.211461          0.21
     1.210539          3.89
     1.210301          0.75
     1.209979          0.61
     1.208623          5.51
     1.207586          0.18
     1.206932          0.36
     1.205050          0.00
     1.203329          0.60
     1.202510          0.13
     1.201193          0.03
     1.200249          7.14
     1.197774          0.00
     1.196907          1.62
     1.196293         10.16
     1.195713          2.60
     1.193241         12.70
     1.192192          0.93
     1.191873          0.01
     1.191774          2.00
     1.191696          0.01
     1.191261          3.31
     1.189135          2.00
     1.188298          0.00
     1.188288          3.38
     1.187930          0.05
     1.186601          5.19
     1.185807          3.86
     1.185744          0.15
     1.180148          4.04
     1.180118          1.91
     1.179790          3.34
     1.178699          0.01
     1.178278         11.99
     1.177558          0.05
     1.173522          4.03
     1.173384          1.77
     1.170808          0.01
     1.167818          0.01
     1.166214          3.01
     1.165673          1.10
     1.164454          3.04
     1.160141          0.09
     1.160092          0.07
     1.157755          2.25
     1.156238          0.19
     1.156025          3.60
     1.154576          2.33
     1.153217          2.69
     1.149400          0.21
     1.148923          0.41
     1.148612          1.92
     1.147562          0.00
     1.146645          1.34
     1.145670         15.61
     1.144670          1.95
     1.144052          0.43
     1.143609          1.53
     1.143539          0.05
     1.143355          0.00
     1.141922          3.89
     1.136478          0.00
     1.129902          0.41
     1.125551          0.23
     1.124574          0.32
     1.123431          0.05
     1.123023         13.57
     1.121753          6.11
     1.120661          0.07
     1.120170          0.00
     1.119417          2.65
     1.118936          3.69
     1.115773          0.14
     1.115570          0.00
     1.112277          0.04
     1.112003          1.19
     1.111494          0.73
     1.110487          0.15
     1.110163          1.07
     1.109077          2.62
     1.108480          3.19
     1.106891          1.50
     1.106383          0.80
     1.104630          0.28
     1.103133          0.20
     1.099650          0.06
     1.099541          0.26
     1.098789          0.89
     1.097881          0.37
     1.097015          0.01
     1.096812          0.01
     1.096543          0.37
     1.094841          0.68
     1.094509          0.61
     1.094485          0.43
     1.094238          0.70
     1.093352          3.58
     1.093272          4.05
     1.093017          0.06
     1.092442          1.09
     1.091272          0.01
     1.089117          0.05
     1.087046          0.33
     1.083690          0.10
     1.082932         15.92
     1.082326          0.15
     1.081566          0.02
     1.081499          0.04
     1.080958          3.20
     1.079555          0.21
     1.078492          0.79
     1.077366          0.00
     1.075788          2.21
     1.075183          0.37
     1.074017          0.05
     1.073331          0.00
     1.073287          2.14
     1.071163          0.00
     1.071085          0.41
     1.070164          0.07
     1.066029          0.62
     1.062666          3.19
     1.061396          1.32
     1.060801          0.20
     1.059856          0.07
     1.059671          0.07
     1.058745          0.31
     1.058475          0.00
     1.058435          0.61
     1.058010          0.28
     1.057694          0.23
     1.057421          1.30
     1.057187          0.59
     1.055897          0.01
     1.055875          0.00
     1.055170          1.11
     1.054949          0.39
     1.053728          0.00
     1.053049          0.02
     1.052212          0.04
     1.050009          0.31
     1.048465          0.05
     1.047445          0.01
     1.047429          0.06
     1.044074          0.47
     1.042544          0.01
     1.042406          0.61
     1.042280          0.01
     1.041545          0.01
     1.040753          0.00
     1.037991          2.53
     1.037704          0.84
     1.037103          1.16
     1.036417          0.02
     1.036380          0.00
     1.035559          1.57
     1.033641          0.03
     1.029292          0.35
     1.028676          0.05
     1.028652          0.10
     1.027930          0.03
     1.025156          0.20
     1.024939         11.85
     1.024817          0.13
     1.023234          0.04
     1.023095          0.37
     1.022507          0.17
     1.022219          3.02
     1.021591          0.06
     1.020726          1.03
     1.020231          0.65
     1.020055          0.25
     1.019839          0.02
     1.019497          0.03
     1.017721          0.26
     1.016620          0.22
     1.015409          1.72
     1.014603          0.01
     1.011917          0.32
     1.011650          0.17
     1.010987          1.77
     1.009834          0.01
     1.009828          2.10
     1.008303          0.01
     1.006904          0.01
##############################################################################
###                            Comments                                    ###
##############################################################################
###   Diffraction pattern calculated by Match!. 
###   I/Ic calculated by Match!. 
##############################################################################


