##############################################################################
###               Crystal structure data exported by Match!                ###
##############################################################################
###                           Data published by:                           ###
###                                                                        ###
###               COD (Crystallography Open Database)
##############################################################################
data_4124036
_citation_journal_full    'Journal of the American Chemical Society'
_citation_journal_volume  '126'
_citation_page_first  '9769'
_citation_page_last   '9775'
_citation_year  '2004'
_citation_title  'Chemical evaluation of hypothetical uninodal zeolites'
loop_
_publ_author_name
  'Foster M.D.'
  'Friedrichs O.D.'
  'Bell R.G.'
  'Paz F.A.A.'
  'Klinowski J.'
_chemical_formula_sum  'O2 Si'
_chemical_name_common  'Silica'
_symmetry_space_group_name_H-M 'R -3 m'
_space_group_IT_number 166
_space_group_crystal_system 'trigonal (hexagonal axes)'
loop_
_symmetry_equiv_pos_as_xyz
   'x, y, z'
   'x+0.66667, y+0.33333, z+0.33333'
   'x+0.33333, y+0.66667, z+0.66667'
   '-y, x-y, z'
   '-y+0.66667, x-y+0.33333, z+0.33333'
   '-y+0.33333, x-y+0.66667, z+0.66667'
   '-x+y, -x, z'
   '-x+y+0.66667, -x+0.33333, z+0.33333'
   '-x+y+0.33333, -x+0.66667, z+0.66667'
   'x-y, -y, -z'
   'x-y+0.66667, -y+0.33333, -z+0.33333'
   'x-y+0.33333, -y+0.66667, -z+0.66667'
   '-x, -x+y, -z'
   '-x+0.66667, -x+y+0.33333, -z+0.33333'
   '-x+0.33333, -x+y+0.66667, -z+0.66667'
   'y, x, -z'
   'y+0.66667, x+0.33333, -z+0.33333'
   'y+0.33333, x+0.66667, -z+0.66667'
   '-x, -y, -z'
   '-x+0.66667, -y+0.33333, -z+0.33333'
   '-x+0.33333, -y+0.66667, -z+0.66667'
   'y, -x+y, -z'
   'y+0.66667, -x+y+0.33333, -z+0.33333'
   'y+0.33333, -x+y+0.66667, -z+0.66667'
   'x-y, x, -z'
   'x-y+0.66667, x+0.33333, -z+0.33333'
   'x-y+0.33333, x+0.66667, -z+0.66667'
   '-x+y, y, z'
   '-x+y+0.66667, y+0.33333, z+0.33333'
   '-x+y+0.33333, y+0.66667, z+0.66667'
   'x, x-y, z'
   'x+0.66667, x-y+0.33333, z+0.33333'
   'x+0.33333, x-y+0.66667, z+0.66667'
   '-y, -x, z'
   '-y+0.66667, -x+0.33333, z+0.33333'
   '-y+0.33333, -x+0.66667, z+0.66667'
_cell_length_a       18.30828
_cell_length_b       18.30828
_cell_length_c        6.69983
_cell_angle_alpha    90.0000
_cell_angle_beta     90.0000
_cell_angle_gamma   120.0000
_cell_formula_units_Z 36
loop_
_atom_site_label
_atom_site_fract_x
_atom_site_fract_y
_atom_site_fract_z
_atom_site_occupancy
_atom_site_B_iso_or_equiv
o      0.667   0.782   0.333    1.00000    1.000
o      0.612   0.667   0.667    1.00000    1.000
o      0.827   0.173   0.012    1.00000    1.000
o      0.765   0.765   0.500    1.00000    1.000
si      0.583   0.573   0.778    1.00000    1.000
_cell_measurement_wavelength    1.541874
_cell_measurement_radiation   'x-rays'
_exptl_crystal_density_diffrn    1.846000
loop_
_pd_peak_d_spacing
_pd_peak_intensity
     9.154140       1000.00
     6.171474         20.62
     5.285145         63.69
     5.117180         22.89
     4.577070         76.20
     4.466670          6.30
     3.676339         10.07
     3.459940          9.19
     3.411505          2.56
     3.277561         15.42
     3.196730          0.07
     3.085737         46.35
     3.051380         46.88
     2.924078          0.86
     2.866248          1.74
     2.735301          0.00
     2.664794         32.11
     2.642573          0.42
     2.620804          1.42
     2.558590         15.44
     2.538902         36.72
     2.464149         28.61
     2.429242         12.27
     2.302923          7.57
     2.288535          1.03
     2.274352          0.09
     2.233335          0.10
     2.233277          0.03
     2.169697          0.28
     2.169643          0.08
     2.145753         16.92
     2.100104          4.02
     2.089128         11.86
     2.057204          1.76
     2.057158          0.54
     2.007102          4.27
     1.997597          8.76
     1.960570          0.50
     1.942850          0.00
     1.900518          0.09
     1.876388          4.56
     1.876354          3.59
     1.860837          6.06
     1.838170          0.37
     1.830828          1.35
     1.802165          0.92
     1.788403          0.99
     1.761715          8.95
     1.755221          0.43
     1.736160          0.41
     1.729970          0.00
     1.723819          5.52
     1.705753          0.78
     1.705727          7.59
     1.676889          3.14
     1.676864          4.87
     1.665689          0.02
     1.644132          1.12
     1.638780          1.91
     1.623302          3.25
     1.613201          3.76
     1.613135          1.68
     1.598365          0.41
     1.598344          2.71
     1.574544          2.71
     1.565321          0.28
     1.565261          0.87
     1.542926          0.20
     1.542869          2.42
     1.529912          0.73
     1.525690          1.32
     1.521466          0.10
     1.521411          0.87
     1.504931          5.04
     1.488907          2.45
     1.488890          0.29
     1.481102          0.05
     1.481051          6.34
     1.465836          1.24
     1.462088          1.90
     1.462039          3.76
     1.451016          2.21
     1.443741          3.68
     1.433124          0.83
     1.415878          0.02
     1.415863          3.34
     1.409160          5.86
     1.409117          2.41
     1.395993          1.73
     1.392755          0.08
     1.383175          6.73
     1.383161          1.73
     1.376910          1.29
     1.376869          0.80
     1.367651          0.01
     1.367637          0.99
     1.346777          0.72
     1.346739          6.39
     1.335206          0.42
     1.332397          2.66
     1.324038          1.26
     1.324026          2.49
     1.321286          5.91
     1.321226          2.52
     1.318540          0.03
     1.310402          5.97
     1.307734          5.95
     1.307676          0.17
     1.297179          0.14
     1.291973          0.56
     1.281781          1.32
     1.279328          0.54
     1.279295          0.26
     1.271891          4.52
     1.269451          1.89
     1.269397          0.16
     1.267015          0.00
     1.266983          3.26
     1.259778          0.28
     1.257366          0.75
     1.248026          0.83
     1.248016          1.10
     1.243418          2.72
     1.243388          0.72
     1.234295          1.37
     1.232075          2.17
     1.225446          2.39
     1.223226          0.42
     1.221093          0.54
     1.221064          0.15
     1.214621          0.01
     1.212496          1.94
     1.212449          1.70
     1.204068          1.34
     1.199929          1.85
     1.191723          0.96
     1.189751          0.12
     1.183762          0.24
     1.183753          1.41
     1.179828          0.12
     1.179802          0.01
     1.172068          0.44
     1.172025          0.10
     1.164450          0.01
     1.160705          0.05
     1.160680          0.87
     1.153313          0.06
     1.153273          3.32
     1.151461          0.25
     1.146053          2.52
     1.144268          0.15
     1.144228          0.31
     1.142459          0.12
     1.137176          3.93
     1.137168          1.08
     1.128502          0.63
     1.128494          0.04
##############################################################################
###                            Comments                                    ###
##############################################################################
###   Diffraction pattern calculated by Match!. 
###   I/Ic calculated by Match!. 
##############################################################################


