##############################################################################
###               Crystal structure data exported by Match!                ###
##############################################################################
###                           Data published by:                           ###
###                                                                        ###
###               COD (Crystallography Open Database)
##############################################################################
data_9016144
_citation_journal_full    'Gazzetta Chimica Italiana'
_citation_journal_volume  '67'
_citation_page_first  '294'
_citation_page_last   '301'
_citation_year  '1937'
_citation_title  'Ricerche sui sali dei cationi esaidrati.- I. Ipofosfiti esaidrati di metalli bivalenti _cod_database_code 1010367'
loop_
_publ_author_name
  'Ferrari A.'
  'Colla C.'
_chemical_formula_sum  'Co O10 P2'
_symmetry_space_group_name_H-M 'F -4 3 m'
_space_group_IT_number 216
_space_group_crystal_system 'cubic'
loop_
_symmetry_equiv_pos_as_xyz
   'x, y, z'
   'x+0.5, y+0.5, z'
   'x+0.5, y, z+0.5'
   'x, y+0.5, z+0.5'
   'y, -x, -z'
   'y+0.5, -x+0.5, -z'
   'y+0.5, -x, -z+0.5'
   'y, -x+0.5, -z+0.5'
   '-x, -y, z'
   '-x+0.5, -y+0.5, z'
   '-x+0.5, -y, z+0.5'
   '-x, -y+0.5, z+0.5'
   '-y, x, -z'
   '-y+0.5, x+0.5, -z'
   '-y+0.5, x, -z+0.5'
   '-y, x+0.5, -z+0.5'
   '-x, z, -y'
   '-x+0.5, z+0.5, -y'
   '-x+0.5, z, -y+0.5'
   '-x, z+0.5, -y+0.5'
   'x, -y, -z'
   'x+0.5, -y+0.5, -z'
   'x+0.5, -y, -z+0.5'
   'x, -y+0.5, -z+0.5'
   '-x, -z, y'
   '-x+0.5, -z+0.5, y'
   '-x+0.5, -z, y+0.5'
   '-x, -z+0.5, y+0.5'
   '-z, -y, x'
   '-z+0.5, -y+0.5, x'
   '-z+0.5, -y, x+0.5'
   '-z, -y+0.5, x+0.5'
   '-x, y, -z'
   '-x+0.5, y+0.5, -z'
   '-x+0.5, y, -z+0.5'
   '-x, y+0.5, -z+0.5'
   'z, -y, -x'
   'z+0.5, -y+0.5, -x'
   'z+0.5, -y, -x+0.5'
   'z, -y+0.5, -x+0.5'
   'z, x, y'
   'z+0.5, x+0.5, y'
   'z+0.5, x, y+0.5'
   'z, x+0.5, y+0.5'
   'y, z, x'
   'y+0.5, z+0.5, x'
   'y+0.5, z, x+0.5'
   'y, z+0.5, x+0.5'
   '-y, -z, x'
   '-y+0.5, -z+0.5, x'
   '-y+0.5, -z, x+0.5'
   '-y, -z+0.5, x+0.5'
   'z, -x, -y'
   'z+0.5, -x+0.5, -y'
   'z+0.5, -x, -y+0.5'
   'z, -x+0.5, -y+0.5'
   '-y, z, -x'
   '-y+0.5, z+0.5, -x'
   '-y+0.5, z, -x+0.5'
   '-y, z+0.5, -x+0.5'
   '-z, -x, y'
   '-z+0.5, -x+0.5, y'
   '-z+0.5, -x, y+0.5'
   '-z, -x+0.5, y+0.5'
   '-z, x, -y'
   '-z+0.5, x+0.5, -y'
   '-z+0.5, x, -y+0.5'
   '-z, x+0.5, -y+0.5'
   'y, -z, -x'
   'y+0.5, -z+0.5, -x'
   'y+0.5, -z, -x+0.5'
   'y, -z+0.5, -x+0.5'
   '-y, -x, z'
   '-y+0.5, -x+0.5, z'
   '-y+0.5, -x, z+0.5'
   '-y, -x+0.5, z+0.5'
   'y, x, z'
   'y+0.5, x+0.5, z'
   'y+0.5, x, z+0.5'
   'y, x+0.5, z+0.5'
   'x, -z, -y'
   'x+0.5, -z+0.5, -y'
   'x+0.5, -z, -y+0.5'
   'x, -z+0.5, -y+0.5'
   'x, z, y'
   'x+0.5, z+0.5, y'
   'x+0.5, z, y+0.5'
   'x, z+0.5, y+0.5'
   '-z, y, -x'
   '-z+0.5, y+0.5, -x'
   '-z+0.5, y, -x+0.5'
   '-z, y+0.5, -x+0.5'
   'z, y, x'
   'z+0.5, y+0.5, x'
   'z+0.5, y, x+0.5'
   'z, y+0.5, x+0.5'
_cell_length_a       10.22000
_cell_length_b       10.22000
_cell_length_c       10.22000
_cell_angle_alpha    90.0000
_cell_angle_beta     90.0000
_cell_angle_gamma    90.0000
loop_
_atom_site_label
_atom_site_fract_x
_atom_site_fract_y
_atom_site_fract_z
_atom_site_occupancy
_atom_site_B_iso_or_equiv
co      0.000   0.000   0.000    1.00000    1.000
p      0.290   0.290   0.290    0.50000    1.000
o      0.190   0.190   0.190    0.50000    1.000
o      0.390   0.390   0.390    0.50000    1.000
o      0.210   0.000   0.000    1.00000    1.000
_cell_measurement_wavelength    1.541874
_cell_measurement_radiation   'x-rays'
_exptl_crystal_density_diffrn    1.747000
loop_
_pd_peak_d_spacing
_pd_peak_intensity
     5.900520       1000.00
     5.110000         22.59
     3.613316        319.40
     3.081446        225.36
     2.950260         86.43
     2.555000        123.70
     2.344629         54.67
     2.285262         35.46
     2.086149         29.22
     1.966840        143.32
     1.806658         94.26
     1.727495         54.51
     1.703333         36.65
     1.615924         11.57
     1.558535         10.03
     1.540723          2.39
     1.475130          8.93
     1.431086         32.64
     1.417259         33.34
     1.365705         14.97
     1.330531         35.19
     1.277500          1.95
     1.248572          0.78
     1.239357         23.48
     1.204439          8.61
     1.180104         21.16
     1.172314          2.82
     1.142631          3.31
     1.121791          9.31
     1.115093          6.16
     1.089456          4.92
     1.071347         15.77
     1.043074          6.77
     1.027149         13.98
     1.022000         10.73
     1.002153          2.61
     0.988005         17.49
     0.983420          7.33
     0.953020         16.31
     0.948903         20.33
     0.932954          2.69
     0.921506          6.67
     0.903329          3.76
     0.892926         11.81
     0.889537         13.24
     0.876358         10.29
     0.866849          3.45
     0.863748          3.45
     0.851667          2.80
     0.842931         13.16
     0.840079          6.88
     0.828951         19.10
     0.820890         27.02
     0.807962          1.69
     0.800492          6.95
     0.798048         16.72
     0.788490         18.29
##############################################################################
###                            Comments                                    ###
##############################################################################
###   Diffraction pattern calculated by Match!. 
###   I/Ic calculated by Match!. 
##############################################################################


