##############################################################################
###               Crystal structure data exported by Match!                ###
##############################################################################
###                           Data published by:                           ###
###                                                                        ###
###               COD (Crystallography Open Database)
##############################################################################
data_9007530
_citation_journal_full    'Acta Crystallographica, Section B'
_citation_journal_volume  '27(11)'
_citation_page_first  '2133'
_citation_page_last   '2139'
_citation_year  '1971'
_citation_title  'Rutile-type compounds. IV.SiO2, GeO2 and a comparison with other rutile-type structuresLocality: Meteor Crater, Arizona, USA'
loop_
_publ_author_name
  'Baur W. H.'
  'Khan A. A.'
_chemical_formula_sum  'O2 Si'
_chemical_name_mineral  'Stishovite'
_symmetry_space_group_name_H-M 'P 42/m n m'
_space_group_IT_number 136
_space_group_crystal_system 'tetragonal'
loop_
_symmetry_equiv_pos_as_xyz
   'x, y, z'
   '-y+0.5, x+0.5, z+0.5'
   '-x, -y, z'
   'y+0.5, -x+0.5, z+0.5'
   'x+0.5, -y+0.5, -z+0.5'
   '-x+0.5, y+0.5, -z+0.5'
   'y, x, -z'
   '-y, -x, -z'
   '-x, -y, -z'
   'y+0.5, -x+0.5, -z+0.5'
   'x, y, -z'
   '-y+0.5, x+0.5, -z+0.5'
   '-x+0.5, y+0.5, z+0.5'
   'x+0.5, -y+0.5, z+0.5'
   '-y, -x, z'
   'y, x, z'
_cell_length_a        4.17900
_cell_length_b        4.17900
_cell_length_c        2.66490
_cell_angle_alpha    90.0000
_cell_angle_beta     90.0000
_cell_angle_gamma    90.0000
loop_
_atom_site_label
_atom_site_fract_x
_atom_site_fract_y
_atom_site_fract_z
_atom_site_occupancy
_atom_site_B_iso_or_equiv
si      0.000   0.000   0.000    1.00000    0.635
o      0.306   0.306   0.000    1.00000    0.850
_cell_measurement_wavelength    1.541874
_cell_measurement_radiation   'x-rays'
_exptl_crystal_density_diffrn    4.288000
loop_
_pd_peak_d_spacing
_pd_peak_intensity
     2.954999       1000.00
     2.246924        245.26
     2.089500          7.49
     1.979005        378.26
     1.868906        141.34
     1.530129        542.45
     1.477500        179.27
     1.332450         89.95
     1.321516         57.47
     1.292184         11.45
     1.234515        232.08
     1.214674         91.16
     1.183936         17.81
     1.159046          3.86
     1.123462         10.68
     1.084940         21.45
     1.062869         26.57
     1.044750         29.77
     1.013556         19.62
##############################################################################
###                            Comments                                    ###
##############################################################################
###   Diffraction pattern calculated by Match!. 
###   I/Ic calculated by Match!. 
###   Space group has been derived from given symmetry operations. 
##############################################################################


