##############################################################################
###               Crystal structure data exported by Match!                ###
##############################################################################

data_1527430
_citation_journal_full    'Journal of Solid State Chemistry'
_citation_journal_volume  '32'
_citation_page_first  '29'
_citation_page_last   '40'
_citation_year  '1980'
_citation_title  'Closest Packing in Dense Oxides: The Structure of a Polymorph of Co3 (AsO4)2'
loop_
_publ_author_name
  'Gopal R.'
  'Rutherford J.S.'
  'Robertson B.E.'
_chemical_formula_sum  'As2 Co3 O8'
_chemical_name_mineral  'Tricobalt arsenate(V) - HT'
_chemical_name_common  'Co3 (As O4)2'
_symmetry_space_group_name_H-M 'I -4 2 d'
_space_group_IT_number 122
_space_group_crystal_system 'tetragonal'
loop_
_symmetry_equiv_pos_as_xyz
   'x, y, z'
   'x+0.5, y+0.5, z+0.5'
   'y, -x, -z'
   'y+0.5, -x+0.5, -z+0.5'
   '-x, -y, z'
   '-x+0.5, -y+0.5, z+0.5'
   '-y, x, -z'
   '-y+0.5, x+0.5, -z+0.5'
   'x, -y+0.5, -z+0.25'
   'x+0.5, -y, -z+0.75'
   '-x, y+0.5, -z+0.25'
   '-x+0.5, y, -z+0.75'
   '-y, -x+0.5, z+0.25'
   '-y+0.5, -x, z+0.75'
   'y, x+0.5, z+0.25'
   'y+0.5, x, z+0.75'
_cell_length_a        6.85800
_cell_length_b        6.85800
_cell_length_c       18.87200
_cell_angle_alpha    90.0000
_cell_angle_beta     90.0000
_cell_angle_gamma    90.0000
_cell_formula_units_Z 6
loop_
_atom_site_label
_atom_site_fract_x
_atom_site_fract_y
_atom_site_fract_z
_atom_site_occupancy
_atom_site_B_iso_or_equiv
o      0.058   0.207   0.043    1.00000    1.000
as      0.000   0.000   0.000    1.00000    1.000
o      0.496   0.290   0.193    1.00000    1.000
co      0.000   0.000   0.500    0.50000    1.000
co      0.243   0.250   0.125    1.00000    1.000
as      -0.344   0.250   0.125    1.00000    1.000
co      0.000   0.000   0.228    1.00000    1.000
o      0.221   0.547   0.102    1.00000    1.000
_cell_measurement_wavelength    1.541874
_cell_measurement_radiation   'x-rays'
_exptl_crystal_density_diffrn    5.103000
loop_
_pd_peak_d_spacing
_pd_peak_intensity
     6.445602          5.20
     4.718000         35.23
     4.635788         36.96
     4.313101          4.43
     3.429000          0.01
     3.306680        170.30
     3.222801         28.72
     3.027274        234.33
     2.773791       1000.00
     2.756795         83.88
     2.638858         14.99
     2.509084          6.98
     2.424669        117.68
     2.380245         11.42
     2.359000        102.59
     2.317894         23.91
     2.269411          8.92
     2.168690          0.21
     2.156550          6.12
     2.148534         22.51
     2.113586         26.71
     2.024890         20.68
     2.005249          5.82
     1.970486         16.35
     1.955330          8.33
     1.943501          8.28
     1.892479         34.16
     1.820661         19.92
     1.785427         24.57
     1.758714          6.84
     1.743579          2.68
     1.730993         61.02
     1.714500        113.70
     1.698576         78.70
     1.690804        154.38
     1.686881         14.23
     1.664347          4.79
     1.656886          2.71
     1.653340          1.26
     1.611400          2.46
     1.608048          8.41
     1.596542         12.52
     1.593238         21.67
     1.572667         11.36
     1.554197         40.15
     1.545263         32.58
     1.533495         13.19
     1.522069         36.58
     1.513637          8.57
     1.505380         10.52
     1.497294         17.40
     1.458393        100.98
     1.437700         22.10
     1.429491         54.50
     1.423642         14.64
     1.420222         16.37
     1.415578          6.84
     1.408818          7.07
     1.386896         32.52
     1.378398         18.48
     1.372182          6.15
     1.367992         14.31
     1.344964         13.95
     1.340115          8.22
     1.331507         10.74
     1.319429          0.73
     1.312130          7.15
     1.303120          9.10
     1.298756          7.66
     1.293435         15.32
     1.289120         10.26
     1.285713          3.75
     1.273964         10.31
     1.273145          2.88
     1.270609         10.26
     1.269007          6.53
     1.254542          5.65
     1.248178          4.67
     1.237481          2.29
     1.236649          6.06
     1.227668          7.74
     1.225473          0.90
     1.222486          4.88
     1.212335          9.88
     1.206665          3.38
     1.194208          0.96
     1.190122          5.69
     1.179500          5.54
     1.176137          3.17
     1.174189          9.73
     1.168403          8.55
     1.167106         19.63
     1.164001          4.16
     1.158947          0.97
     1.153991         13.68
     1.151495          3.16
     1.147848         20.32
     1.144861         11.83
     1.143000          1.04
     1.141212          2.81
     1.134706          5.20
     1.125442          3.54
     1.115359          6.69
     1.110865         21.86
     1.109765          0.43
     1.102227          0.49
     1.101638         14.19
     1.097932         12.53
     1.095853          0.03
     1.095275          8.61
     1.093716         12.88
     1.088481          4.54
     1.084345         14.07
     1.080283          1.53
     1.078275          3.48
     1.077255          5.43
     1.074267          3.65
     1.071316          6.30
     1.069319          1.24
     1.060660          7.59
     1.059689          3.04
     1.056793          6.92
     1.055846          1.77
     1.052569          1.24
     1.049347          3.79
     1.043843         10.86
     1.040157          0.09
     1.036164          3.40
     1.035259          5.95
     1.030359          2.08
     1.028617          0.07
     1.025136          3.62
     1.024767          5.51
     1.022571          3.90
     1.022147          7.84
     1.020833          0.20
     1.012445          0.51
     1.009091          1.46
##############################################################################
###                            Comments                                    ###
##############################################################################
###   Diffraction pattern calculated by Match!. 
###   I/Ic calculated by Match!. 
###   Space group has been derived from given symmetry operations. 
##############################################################################


