##############################################################################
###               Crystal structure data exported by Match!                ###
##############################################################################
###                           Data published by:                           ###
###                                                                        ###
###               COD (Crystallography Open Database)
##############################################################################
data_9010407
_citation_journal_full    'American Mineralogist'
_citation_journal_volume  '93'
_citation_page_first  '584'
_citation_page_last   '590'
_citation_year  '2008'
_citation_title  'Structure and reactivity of synthetic Co-substituted goethitesLocality: syntheticSample: G3, 3 mol% Co'
loop_
_publ_author_name
  'Alvarez M.'
  'Sileo E. E.'
  'Rueda E. H.'
_chemical_formula_sum  'Co0.03 Fe0.97 H O2'
_chemical_name_mineral  'Goethite'
_symmetry_space_group_name_H-M 'P b n m'
_space_group_IT_number 62
_space_group_crystal_system 'orthorhombic'
loop_
_symmetry_equiv_pos_as_xyz
   'x, y, z'
   '-x, -y, z+0.5'
   'x+0.5, -y+0.5, -z'
   '-x+0.5, y+0.5, -z+0.5'
   '-x, -y, -z'
   'x, y, -z+0.5'
   '-x+0.5, y+0.5, z'
   'x+0.5, -y+0.5, z+0.5'
_cell_length_a        4.60700
_cell_length_b        9.94720
_cell_length_c        3.02100
_cell_angle_alpha    90.0000
_cell_angle_beta     90.0000
_cell_angle_gamma    90.0000
loop_
_atom_site_label
_atom_site_fract_x
_atom_site_fract_y
_atom_site_fract_z
_atom_site_occupancy
_atom_site_B_iso_or_equiv
fe      0.047   -0.146   0.250    0.97000    1.000
co      0.047   -0.146   0.250    0.03000    1.000
o      -0.286   0.197   0.250    1.00000    1.000
o      0.189   0.053   0.250    1.00000    1.000
_cell_measurement_wavelength    1.541874
_cell_measurement_radiation   'x-rays'
_exptl_crystal_density_diffrn    4.267000
loop_
_pd_peak_d_spacing
_pd_peak_intensity
     4.973600        117.60
     4.180409       1000.00
     3.379820        108.19
     2.691193        398.95
     2.582010        224.81
     2.526290         43.12
     2.486800        140.52
     2.448557        615.04
     2.303500         30.60
     2.252384         83.75
     2.244114         27.50
     2.188343        144.27
     2.090205          9.32
     2.009486         32.41
     1.919974         55.55
     1.891783          3.28
     1.826422          6.54
     1.801465        102.16
     1.772230         21.87
     1.718884        318.58
     1.689910         89.73
     1.657867         31.43
     1.603356         58.84
     1.562980        215.93
     1.559936          3.76
     1.517687          4.58
     1.510500         93.20
     1.505637         42.80
     1.474842         32.44
     1.467315         37.45
     1.453397         93.17
     1.445315          4.87
     1.420608         55.71
     1.393470         40.54
     1.386059          0.12
     1.379044          9.79
     1.368950         42.27
     1.357900         47.27
     1.356168         20.44
     1.347549          0.01
     1.345597         17.41
     1.319867         16.25
     1.317204         61.43
     1.306612          0.87
     1.291005         25.62
     1.265347         18.92
     1.263145          9.16
     1.253082          7.26
     1.243400          0.24
     1.243118         22.53
     1.238536          0.78
     1.229179          5.11
     1.224279          2.40
     1.215631          0.18
     1.209412          0.31
     1.200447          0.14
     1.199249         27.70
     1.180393          1.20
     1.164000          1.82
     1.151750          3.58
     1.149817         20.81
     1.144106         24.88
     1.127752          9.04
     1.126607          9.73
     1.126192         32.20
     1.122781          7.50
     1.122057          0.92
     1.116556         12.21
     1.115597          1.13
     1.094172         11.43
     1.087982          4.30
     1.085141          1.71
     1.074749          4.39
     1.070617          2.57
     1.069947          4.24
     1.066361         19.82
     1.055593         17.07
     1.052485         19.85
     1.051848          3.08
     1.045102          1.64
     1.042994          8.38
     1.028773         18.21
     1.024209         22.90
     1.023623         25.48
     1.012579         24.35
     1.009834         30.54
##############################################################################
###                            Comments                                    ###
##############################################################################
###   Diffraction pattern calculated by Match!. 
###   I/Ic calculated by Match!. 
###   Space group has been derived from given symmetry operations. 
##############################################################################


