##############################################################################
###               Crystal structure data exported by Match!                ###
##############################################################################
###                           Data published by:                           ###
###                                                                        ###
###               COD (Crystallography Open Database)
##############################################################################
data_9016178
_citation_journal_full    'Materials Science Forum'
_citation_journal_volume  '79-82'
_citation_page_first  '821'
_citation_page_last   '826'
_citation_year  '1991'
_citation_title  'Rietveld studies of the aluminium-iron substitution in synthetic goethite'
loop_
_publ_author_name
  'Hazemann J.-L.'
  'B?rar J. F.'
  'Manceau A.'
_chemical_formula_sum  'Fe O2'
_chemical_name_mineral  'Goethite'
_symmetry_space_group_name_H-M 'P b n m'
_space_group_IT_number 62
_space_group_crystal_system 'orthorhombic'
loop_
_symmetry_equiv_pos_as_xyz
   'x, y, z'
   '-x, -y, z+0.5'
   'x+0.5, -y+0.5, -z'
   '-x+0.5, y+0.5, -z+0.5'
   '-x, -y, -z'
   'x, y, -z+0.5'
   '-x+0.5, y+0.5, z'
   'x+0.5, -y+0.5, z+0.5'
_cell_length_a        4.61580
_cell_length_b        9.95450
_cell_length_c        3.02330
_cell_angle_alpha    90.0000
_cell_angle_beta     90.0000
_cell_angle_gamma    90.0000
loop_
_atom_site_label
_atom_site_fract_x
_atom_site_fract_y
_atom_site_fract_z
_atom_site_occupancy
_atom_site_B_iso_or_equiv
fe      0.048   0.854   0.750    1.00000    1.000
o      0.708   0.199   0.750    1.00000    1.000
o      0.197   0.053   0.750    1.00000    1.000
_cell_measurement_wavelength    1.541874
_cell_measurement_radiation   'x-rays'
_exptl_crystal_density_diffrn    4.200000
loop_
_pd_peak_d_spacing
_pd_peak_intensity
     4.977250        124.59
     4.187525       1000.00
     3.384439        110.14
     2.694247        416.21
     2.583957        239.66
     2.529085         48.94
     2.488625        142.60
     2.451211        667.15
     2.307900         29.90
     2.254704         91.09
     2.248266         27.81
     2.190529        152.05
     2.093762         11.79
     2.011434         35.46
     1.921404         58.20
     1.894671          5.46
     1.828100          7.60
     1.804100        103.72
     1.773855         24.47
     1.721286        333.60
     1.692219         96.46
     1.659083         31.85
     1.605458         68.10
     1.564350        220.30
     1.561291          4.17
     1.520544          5.49
     1.511650         97.91
     1.507497         44.09
     1.476644         30.00
     1.469968         43.94
     1.454473         99.47
     1.446412          5.14
     1.421844         56.25
     1.395842         42.41
     1.387231          0.27
     1.380233         10.10
     1.371242         40.53
     1.359035         51.35
     1.358414         18.56
     1.349087          0.08
     1.347124         19.06
     1.321989         18.32
     1.318324         64.10
     1.308683          0.79
     1.291978         26.24
     1.267292         19.71
     1.264543          9.14
     1.254461          7.46
     1.244313          0.32
     1.244160         23.76
     1.239556          0.89
     1.230498          4.86
     1.225605          2.90
     1.217419          0.27
     1.210691          0.30
     1.201423          0.08
     1.200994         30.34
     1.181643          1.80
     1.164961          2.10
     1.153950          3.82
     1.150666         22.20
     1.146274         27.24
     1.129299         10.00
     1.128146          9.27
     1.127352         34.42
     1.124133          0.49
     1.123923          8.05
     1.117392         12.41
     1.116496          1.07
     1.095265         11.98
     1.089922          4.21
     1.086024          1.89
     1.075606          4.41
     1.072029          2.98
     1.071821          4.59
     1.067427         20.46
     1.056958         17.89
     1.053852         22.96
     1.053655          2.74
     1.046881          1.50
     1.044325          7.78
     1.029772         18.83
     1.025509         23.82
     1.025328         26.23
     1.013383         25.19
     1.010645         33.02
##############################################################################
###                            Comments                                    ###
##############################################################################
###   Diffraction pattern calculated by Match!. 
###   I/Ic calculated by Match!. 
###   Space group has been derived from given symmetry operations. 
##############################################################################


