##############################################################################
###               Crystal structure data exported by Match!                ###
##############################################################################
###                           Data published by:                           ###
###                                                                        ###
###               COD (Crystallography Open Database)
##############################################################################
data_9009120
_citation_journal_full    'Crystal Structures'
_citation_journal_volume  '1'
_citation_page_first  '239'
_citation_page_last   '444'
_citation_year  '1963'
_citation_title  'Second edition. Interscience Publishers, New York, New YorkNote: cadmium iodide structure'
loop_
_publ_author_name
  'Wyckoff R. W. G.'
_chemical_formula_sum  'S2 Sn'
_chemical_name_mineral  'Berndtite-2T'
_symmetry_space_group_name_H-M 'P -3 m 1'
_space_group_IT_number 164
_space_group_crystal_system 'trigonal (hexagonal axes)'
loop_
_symmetry_equiv_pos_as_xyz
   'x, y, z'
   '-y, x-y, z'
   '-x+y, -x, z'
   'x-y, -y, -z'
   '-x, -x+y, -z'
   'y, x, -z'
   '-x, -y, -z'
   'y, -x+y, -z'
   'x-y, x, -z'
   '-x+y, y, z'
   'x, x-y, z'
   '-y, -x, z'
_cell_length_a        3.63900
_cell_length_b        3.63900
_cell_length_c        5.86800
_cell_angle_alpha    90.0000
_cell_angle_beta     90.0000
_cell_angle_gamma   120.0000
loop_
_atom_site_label
_atom_site_fract_x
_atom_site_fract_y
_atom_site_fract_z
_atom_site_occupancy
_atom_site_B_iso_or_equiv
sn      0.000   0.000   0.000    1.00000    1.000
s      0.333   0.667   0.250    1.00000    1.000
_cell_measurement_wavelength    1.541874
_cell_measurement_radiation   'x-rays'
_exptl_crystal_density_diffrn    4.512000
loop_
_pd_peak_d_spacing
_pd_peak_intensity
     5.868000        894.84
     3.151466        292.11
     2.934000         29.36
     2.776398       1000.00
     2.147419        594.20
     1.956000         45.14
     1.819500        244.36
     1.737874        178.53
     1.661916        182.11
     1.575733         34.01
     1.546299         26.77
     1.521820        130.20
     1.467000         36.09
     1.388199        119.91
     1.332226         64.21
     1.329966         34.90
     1.227088         56.16
     1.191142         22.59
     1.173600          6.57
     1.167335         93.41
     1.142036         83.56
     1.103658        102.06
     1.099814         38.18
     1.073710         15.73
     1.050489         32.38
     1.034050         26.38
     1.017349         61.72
##############################################################################
###                            Comments                                    ###
##############################################################################
###   Diffraction pattern calculated by Match!. 
###   I/Ic calculated by Match!. 
###   Space group has been derived from given symmetry operations. 
##############################################################################


