##############################################################################
###               Crystal structure data exported by Match!                ###
##############################################################################
###                           Data published by:                           ###
###                                                                        ###
###               COD (Crystallography Open Database)
##############################################################################
data_9000086
_citation_journal_full    'American Mineralogist'
_citation_journal_volume  '44'
_citation_page_first  '1210'
_citation_page_last   '1218'
_citation_year  '1959'
_citation_title  'New wurtzite polytypes from Joplin, Missouri'
loop_
_publ_author_name
  'Evans H. T.'
  'McKnight E. T.'
_chemical_formula_sum  'S Zn'
_chemical_name_mineral  'Wurtzite-8H'
_symmetry_space_group_name_H-M 'P 63 m c'
_space_group_IT_number 186
_space_group_crystal_system 'hexagonal'
loop_
_symmetry_equiv_pos_as_xyz
   'x, y, z'
   'x-y, x, z+0.5'
   '-y, x-y, z'
   '-x, -y, z+0.5'
   '-x+y, -x, z'
   'y, -x+y, z+0.5'
   '-x+y, y, z'
   'x, x-y, z'
   '-y, -x, z'
   'y, x, z+0.5'
   'x-y, -y, z+0.5'
   '-x, -x+y, z+0.5'
_cell_length_a        3.82000
_cell_length_b        3.82000
_cell_length_c       24.96000
_cell_angle_alpha    90.0000
_cell_angle_beta     90.0000
_cell_angle_gamma   120.0000
loop_
_atom_site_label
_atom_site_fract_x
_atom_site_fract_y
_atom_site_fract_z
_atom_site_occupancy
_atom_site_B_iso_or_equiv
zn      0.000   0.000   0.000    1.00000    1.000
zn      0.333   0.667   0.125    1.00000    1.000
zn      0.333   0.667   0.375    1.00000    1.000
zn      0.333   0.667   0.750    1.00000    1.000
s      0.000   0.000   0.094    1.00000    1.000
s      0.333   0.667   0.219    1.00000    1.000
s      0.333   0.667   0.469    1.00000    1.000
s      0.333   0.667   0.844    1.00000    1.000
_cell_measurement_wavelength    1.541874
_cell_measurement_radiation   'x-rays'
_exptl_crystal_density_diffrn    4.104000
loop_
_pd_peak_d_spacing
_pd_peak_intensity
     3.308217         73.69
     3.279537         68.55
     3.197773        879.54
     3.120000        751.46
     3.074116       1000.00
     2.922854        238.68
     2.757636        214.28
     2.589279        109.55
     2.425190          9.99
     2.269797         27.05
     2.125316         15.83
     1.992502        264.39
     1.910000        835.94
     1.871227        420.71
     1.760872        152.83
     1.660591        178.87
     1.654108          7.66
     1.650488          7.26
     1.639768         98.47
     1.628993        534.28
     1.622357        122.81
     1.598887         33.56
     1.570156         35.42
     1.569455         46.45
     1.560000         20.01
     1.537058         19.26
     1.500516          1.84
     1.486545          1.16
     1.461427          5.43
     1.420617          3.50
     1.410992          1.23
     1.378818         64.66
     1.342004          0.76
     1.336655        113.35
     1.294640         45.16
     1.278866         20.21
     1.253182         57.54
     1.250388          4.99
     1.248822          4.74
     1.244159         64.74
     1.236503         81.30
     1.226016         22.17
     1.220943         52.15
     1.212918         23.01
     1.212595         16.07
     1.208218         39.13
     1.197466         13.07
     1.179943          1.35
     1.173113          0.42
     1.167676         30.12
     1.160650          4.26
     1.139888          2.91
     1.134898          0.46
     1.118569         56.71
     1.117953         56.82
     1.102739         99.58
     1.098059          0.33
     1.095123        105.40
     1.073189         24.75
     1.071656         44.46
     1.062658          9.93
     1.047784         59.92
     1.040000         15.49
     1.039709         93.57
     1.031154          1.05
     1.028722         28.64
     1.023713         17.58
##############################################################################
###                            Comments                                    ###
##############################################################################
###   Diffraction pattern calculated by Match!. 
###   I/Ic calculated by Match!. 
###   Space group has been derived from given symmetry operations. 
##############################################################################


