##############################################################################
###               Crystal structure data exported by Match!                ###
##############################################################################
###                           Data published by:                           ###
###                                                                        ###
###               COD (Crystallography Open Database)
##############################################################################
data_9003550
_citation_journal_full    'American Mineralogist'
_citation_journal_volume  '89'
_citation_page_first  '1422'
_citation_page_last   '1432'
_citation_year  '2004'
_citation_title  'Accommodation of the carbonate ion in apatite: An FTIR and X-ray structurestudy of crystals synthesized at 2-4 GPa Sample: xt371'
loop_
_publ_author_name
  'Fleet M E'
  'Liu X'
  'King P L'
_chemical_formula_sum  'C0.26 Ca5 O13.686 P2.829'
_chemical_name_mineral  'Carbonate-hydroxylapatite'
_symmetry_space_group_name_H-M 'P 63/m'
_space_group_IT_number 176
_space_group_crystal_system 'hexagonal'
loop_
_symmetry_equiv_pos_as_xyz
   'x, y, z'
   'x-y, x, z+0.5'
   '-y, x-y, z'
   '-x, -y, z+0.5'
   '-x+y, -x, z'
   'y, -x+y, z+0.5'
   '-x, -y, -z'
   '-x+y, -x, -z+0.5'
   'y, -x+y, -z'
   'x, y, -z+0.5'
   'x-y, x, -z'
   '-y, x-y, -z+0.5'
_cell_length_a        9.48030
_cell_length_b        9.48030
_cell_length_c        6.88530
_cell_angle_alpha    90.0000
_cell_angle_beta     90.0000
_cell_angle_gamma   120.0000
loop_
_atom_site_label
_atom_site_fract_x
_atom_site_fract_y
_atom_site_fract_z
_atom_site_occupancy
_atom_site_B_iso_or_equiv
ca      0.667   0.333   0.002    1.00000    1.413
ca      0.991   0.249   0.250    1.00000    1.752
p      0.371   0.401   0.250    0.94300    1.263
o      0.485   0.331   0.250    1.00000    1.563
o      0.466   0.586   0.250    1.00000    2.905
o      0.261   0.346   0.072    0.97100    3.395
o      0.000   0.000   0.250    0.36000    1.973
c      0.000   0.000   0.000    0.26000    1.973
o      0.028   0.998   0.662    0.10500    1.973
o      0.953   0.123   0.536    0.04900    1.973
o      0.911   0.015   0.461    0.06200    1.973
o      0.359   0.435   0.472    0.03400    1.973
_cell_measurement_wavelength    1.541874
_cell_measurement_radiation   'x-rays'
_exptl_crystal_density_diffrn    3.161000
loop_
_pd_peak_d_spacing
_pd_peak_intensity
     8.210181         75.12
     3.442650        292.09
     3.103157        148.72
     2.829101       1000.00
     2.637833        177.65
     2.277094        197.47
     1.952180        284.92
     1.845249        294.07
     1.721325        138.70
     1.441895         76.18

##############################################################################
###                            Comments                                    ###
##############################################################################
###   Diffraction pattern calculated by Match!. 
###   I/Ic calculated by Match!. 
###   Space group has been derived from given symmetry operations. 
##############################################################################


