##############################################################################
###               Crystal structure data exported by Match!                ###
##############################################################################
###                           Data published by:                           ###
###                                                                        ###
###               COD (Crystallography Open Database)
##############################################################################
data_4513299
_citation_journal_full    'Design''
_citation_journal_volume  '15(8)'
_citation_page_first  '3950'
_citation_year  '2015'
_citation_title  'Cascade of High-Pressure Transitions of Claudetite II and the First PolarPhase of Arsenic(III) Oxide'
loop_
_publ_author_name
  'Gunka Piotr A.'
  'Dranka Maciej'
  'Hanfland Michael'
  'Dziubek Kamil F.'
  'Katrusiak Andrzej'
  'Zachara Janusz'
_chemical_formula_sum  'As2 O3'
_chemical_name_common  'Arsenic(III) trioxide'
_symmetry_space_group_name_H-M 'P 1 21/n 1'
_space_group_IT_number 14
_space_group_crystal_system 'monoclinic'
loop_
_symmetry_equiv_pos_as_xyz
   'x, y, z'
   '-x+0.5, y+0.5, -z+0.5'
   '-x, -y, -z'
   'x+0.5, -y+0.5, z+0.5'
_cell_length_a        7.93070
_cell_length_b        4.51054
_cell_length_c        8.78300
_cell_angle_alpha    90.0000
_cell_angle_beta    102.5300
_cell_angle_gamma    90.0000
_cell_formula_units_Z 4
loop_
_atom_site_label
_atom_site_fract_x
_atom_site_fract_y
_atom_site_fract_z
_atom_site_occupancy
_atom_site_B_iso_or_equiv
as      0.682   0.220   0.122    1.00000    2.684
as      0.386   0.180   0.306    1.00000    3.000
o      0.722   0.376   0.314    1.00000    3.947
o      0.464   0.151   0.127    1.00000    2.842
o      0.174   0.062   0.211    1.00000    1.973
_cell_measurement_wavelength    1.541874
_cell_measurement_radiation   'x-rays'
_cell_measurement_temperature    293.000000
_cell_measurement_pressure       1300000.000000
_exptl_crystal_density_diffrn    4.284000
loop_
_pd_peak_d_spacing
_pd_peak_intensity
     6.488697         17.86
     5.211087         14.08
     4.286906        361.25
     3.991841         20.06
     3.897317         73.72
     3.870905         96.21
     3.703618         37.57
     3.410423       1000.00
     3.244349        291.24
     3.107353         64.82
     3.054563          9.48
     2.937488          2.06
     2.930799         21.71
     2.892716        179.34
     2.738700         38.16
     2.648434          1.50
     2.633825        164.92
     2.633797        175.52
     2.605543        103.79
     2.510003         32.38
     2.434987        113.25
     2.414134          1.66
     2.335229         39.25
     2.274455         96.42
     2.256167          0.99
     2.255270         93.96
     2.241112         15.42
     2.239917          0.20
     2.193280         52.02
     2.181077         89.30
     2.165266         20.44
     2.162899          0.00
     2.159138          0.05
     2.143453         30.87
     2.130265         17.30
     2.075692          9.66
     2.073780         60.27
     2.069751          1.29
     1.995921          5.76
     1.981719         24.26
     1.971249          9.68
     1.950268          0.41
     1.948659          7.27
     1.946702          5.54
     1.935975         48.64
     1.935453         20.09
     1.927818          2.07
     1.898165          0.18
     1.887191         14.85
     1.885613         27.88
     1.856875         13.83
     1.851809         30.87
     1.847583          0.26
     1.815002          1.70
     1.797093          0.15
     1.778624         78.25
     1.778598         22.22
     1.772693          0.72
     1.770423          0.02
     1.756581         57.60
     1.737029          1.26
     1.723394         32.00
     1.718714          0.33
     1.713066         46.91
     1.705211         41.66
     1.698684         17.88
     1.698163         13.58
     1.677569         12.37
     1.676342          9.07
     1.666449          5.52
     1.662143          2.87
     1.636837          1.66
     1.635913         33.70
     1.622248          0.82
     1.622174          2.33
     1.620983         19.70
     1.609885         14.58
     1.602842          2.82
     1.602395          5.37
     1.600031          0.41
     1.596793         39.69
     1.585041         10.79
     1.571732         21.96
     1.561035          3.65
     1.553677         18.01
     1.537888          8.83
     1.533929         19.78
     1.527281          0.39
     1.526458         55.91
     1.509943          9.79
     1.506862          2.88
     1.505253          2.97
     1.505007         35.55
     1.495396          4.26
     1.489029          3.15
     1.481992          1.02
     1.480916          0.64
     1.479093          0.29
     1.475937         19.05
     1.468997          4.60
     1.468744          6.54
     1.465399          2.24
     1.464707          0.93
     1.464478          2.02
     1.446358          0.67
     1.444588         18.19
     1.434463          4.24
     1.428969          1.63
     1.427633          0.93
     1.420745          2.44
     1.418784          5.27
     1.413656          2.02
     1.409551         15.80
     1.403655          0.21
     1.401506          0.77
     1.400778         10.95
     1.396786          6.06
     1.391653          0.27
     1.390794          1.52
     1.385822         15.71
     1.384956          0.78
     1.379533          2.85
     1.378108         25.48
     1.377281          9.81
     1.376160          1.11
     1.369350         12.99
     1.366169          2.54
     1.365008          1.61
     1.364148         10.41
     1.363271          5.69
     1.362241         36.96
     1.344513          0.99
     1.334074          8.49
     1.330614          0.82
     1.324217         13.54
     1.322937          0.84
     1.316913          0.00
     1.316899          0.78
     1.306269          3.43
     1.306250          0.76
     1.305742          4.34
     1.303764          3.76
     1.303210         11.28
     1.302772          0.07
     1.302253          0.74
     1.299339          9.86
     1.299106          7.34
     1.297739          0.57
     1.296798          2.59
     1.296641          0.20
     1.291216          3.11
     1.290302          1.43
     1.289816          4.62
     1.288027          9.82
     1.282765          2.80
     1.276479          0.00
     1.265743          2.10
     1.264158          6.55
     1.264135         24.09
     1.255001          0.11
     1.252492         20.95
     1.252449          0.09
     1.252350          0.52
     1.251859         16.84
     1.251611          0.44
     1.247207          0.92
     1.247147          2.50
     1.241354          4.23
     1.240542         11.26
     1.239810          5.75
     1.236016          1.64
     1.234539          1.71
     1.230904          6.75
     1.230890          0.73
     1.229598          0.04
     1.227387          1.31
     1.226798          3.43
     1.222785          2.60
     1.221001          1.32
     1.219048          0.40
     1.217640          3.71
     1.217494          0.16
     1.213161          6.49
     1.209073          0.01
     1.207217          0.21
     1.207067          0.32
     1.206790          0.13
     1.206702         19.41
     1.203033          0.43
     1.197988          0.34
     1.194682          6.69
     1.192997          0.08
     1.192795          1.21
     1.187348          2.44
     1.186308          0.07
     1.185579          0.25
     1.182025          0.36
     1.179468          4.25
     1.171526          5.21
     1.171200         10.08
     1.169016          0.80
     1.167614          0.47
     1.167611          1.59
     1.160719          6.44
     1.155414          3.99
     1.152160          7.32
     1.147165          0.01
     1.142236          0.01
     1.138398          0.27
     1.137227          0.72
     1.136808          0.75
     1.133608          0.62
     1.132960          2.51
     1.130497          8.26
     1.130356          1.08
     1.129509          0.01
     1.128728          1.49
     1.128386          2.52
     1.128084          0.51
     1.127635          0.24
     1.127278          0.27
     1.124812          0.36
     1.122408          0.05
     1.120556          3.53
     1.119958          0.77
     1.118282          0.02
     1.118007          6.37
     1.116625          0.06
     1.116152          0.67
     1.115860          0.09
     1.113377          0.77
     1.110983          1.80
     1.107927          0.42
     1.106997          0.02
     1.102710          5.53
     1.102126          0.31
     1.097912          0.43
     1.096640          0.49
     1.096436          0.72
     1.095813          2.05
     1.094936          0.69
     1.094870          1.35
     1.094652          0.30
     1.094636          0.19
     1.092128          1.84
     1.090828          1.62
     1.090538          0.19
     1.088204          0.56
     1.085592          0.00
     1.084602          0.00
     1.083473          0.39
     1.082633          0.87
     1.082297          1.60
     1.081543          1.94
     1.081450          3.86
     1.079569          0.32
     1.078651          0.37
     1.076338          0.03
     1.074154          0.05
     1.071738          0.31
     1.071726          0.01
     1.069668          0.91
     1.068393          2.06
     1.067883          3.25
     1.066094          1.10
     1.065133          0.67
     1.064839          5.20
     1.063672          0.09
     1.063488          0.01
     1.060814          3.06
     1.060061          0.09
     1.053321          0.98
     1.051730          3.09
     1.051645          2.18
     1.050729          0.00
     1.050631          0.17
     1.049819          0.02
     1.048938          0.16
     1.048538          0.68
     1.048171          0.55
     1.046530          0.06
     1.046236          3.73
     1.045665          0.04
     1.043325          5.80
     1.042697          0.03
     1.042350          1.79
     1.042217          0.25
     1.039399          6.14
     1.039156          0.46
     1.037846          1.17
     1.037599          1.03
     1.036890          0.14
     1.036624          0.69
     1.035784          3.52
     1.034875          0.95
     1.034513          0.71
     1.033411          1.04
     1.033294          3.06
     1.030745          0.56
     1.028601          1.54
     1.027927          0.20
     1.027547          0.27
     1.025014          2.53
     1.023819          0.51
     1.023738          0.52
     1.019496          0.13
     1.019178          1.14
     1.018188          1.23
     1.015462          0.32
     1.015445          1.42
     1.012642          4.13
     1.011677          0.08
     1.011418          0.73
     1.011189          6.40
     1.010530          4.23
     1.009125          3.20
##############################################################################
###                            Comments                                    ###
##############################################################################
###   Diffraction pattern calculated by Match!. 
###   I/Ic calculated by Match!. 
##############################################################################


