##############################################################################
###               Crystal structure data exported by Match!                ###
##############################################################################
###                           Data published by:                           ###
###                                                                        ###
###               COD (Crystallography Open Database)
##############################################################################
data_9001504
_citation_journal_full    'American Mineralogist'
_citation_journal_volume  '77'
_citation_page_first  '1285'
_citation_page_last   '1291'
_citation_year  '1992'
_citation_title  'Attakolite: New data and crystal-structure determination'
loop_
_publ_author_name
  'Grice J. D.'
  'Dunn P. J.'
_chemical_formula_sum  'Al4 Ca H5 Mn O20 P3 Si'
_chemical_name_mineral  'Attakolite'
_symmetry_space_group_name_H-M 'C 1 2/m 1'
_space_group_IT_number 12
_space_group_crystal_system 'monoclinic'
loop_
_symmetry_equiv_pos_as_xyz
   'x, y, z'
   'x+0.5, y+0.5, z'
   '-x, y, -z'
   '-x+0.5, y+0.5, -z'
   '-x, -y, -z'
   '-x+0.5, -y+0.5, -z'
   'x, -y, z'
   'x+0.5, -y+0.5, z'
_cell_length_a       17.18800
_cell_length_b       11.47700
_cell_length_c        7.32200
_cell_angle_alpha    90.0000
_cell_angle_beta    113.8300
_cell_angle_gamma    90.0000
loop_
_atom_site_label
_atom_site_fract_x
_atom_site_fract_y
_atom_site_fract_z
_atom_site_occupancy
_atom_site_B_iso_or_equiv
ca      0.000   0.259   0.000    1.00000    0.936
mn      0.287   0.000   0.049    1.00000    0.776
al      0.133   0.367   0.496    1.00000    0.526
al      0.119   0.129   0.768    1.00000    0.505
si      0.051   0.000   0.331    1.00000    0.473
p      0.466   0.000   0.235    1.00000    0.531
p      0.209   0.253   0.195    1.00000    0.455
o      0.407   0.000   0.353    1.00000    0.815
o      0.405   0.000   0.017    1.00000    0.947
o      -0.006   -0.114   0.247    1.00000    0.668
o      0.269   0.147   0.262    1.00000    0.565
o      0.262   0.361   0.189    1.00000    0.713
o      0.163   0.274   0.330    1.00000    0.897
o      0.095   0.000   -0.427    1.00000    0.710
o      0.523   -0.109   0.285    1.00000    0.705
o      0.140   0.232   -0.015    1.00000    0.652
o      0.126   0.000   0.257    1.00000    1.236
o      0.177   0.500   0.437    1.00000    0.789
o      0.088   0.244   0.581    1.00000    0.605
o      0.155   0.000   -0.061    1.00000    0.605
h      0.339   0.500   -0.321    1.00000    2.368
h      0.682   0.000   0.357    1.00000    2.368
h      0.555   -0.226   0.510    1.00000    2.368
h      0.152   0.000   0.021    1.00000    2.368
_cell_measurement_wavelength    1.541874
_cell_measurement_radiation   'x-rays'
_exptl_crystal_density_diffrn    3.263000
loop_
_pd_peak_d_spacing
_pd_peak_intensity
     9.269982         53.23
     7.861346         18.39
     6.697787         62.83
     6.575827        412.21
     6.171525          3.48
     5.738500          0.39
     4.902804          1.78
     4.807318         70.83
     4.767362         32.47
     4.634991        108.15
     4.357785          7.06
     4.323659        392.95
     4.310548         18.44
     4.213655         71.34
     3.930673          1.49
     3.717210          2.64
     3.659945         21.97
     3.446514         16.15
     3.420805         50.33
     3.396381         49.20
     3.390525          2.20
     3.387881         81.35
     3.348893         39.99
     3.346181         39.18
     3.287913         78.76
     3.285346         20.56
     3.242872          2.40
     3.125979        373.13
     3.100795        354.18
     3.089994          0.00
     3.085762       1000.00
     3.032766        129.34
     2.934215         56.14
     2.914715        243.64
     2.892389          0.00
     2.872943          2.10
     2.869250        227.77
     2.864387         84.39
     2.852828         12.75
     2.711236          6.65
     2.695336          2.30
     2.647060          0.30
     2.637432        152.15
     2.629810         19.57
     2.620449          6.69
     2.615415         90.18
     2.600612         12.94
     2.598712        102.02
     2.581607          9.66
     2.562854        180.29
     2.553360         19.52
     2.451402        191.10
     2.429785         64.24
     2.429236         10.69
     2.419924         11.89
     2.403659        214.91
     2.402377          6.70
     2.394648        176.43
     2.388497        104.91
     2.386625          2.92
     2.383681         21.35
     2.377697          0.10
     2.371621         49.38
     2.362250        104.79
     2.344742         19.39
     2.317496          0.00
     2.309096          1.71
     2.298760          1.52
     2.271322          5.55
     2.268939          0.45
     2.258067          7.49
     2.232596          9.85
     2.229771         31.67
     2.216021         19.32
     2.204283         26.72
     2.191942          4.20
     2.190236          0.70
     2.178892        141.15
     2.161890          1.64
     2.161829         82.42
     2.155274         76.79
     2.132968         43.06
     2.113810         53.10
     2.106827         43.23
     2.105971         18.98
     2.102578          1.02
     2.084623          2.98
     2.080672         14.84
     2.062306         10.82
     2.061617          0.31
     2.057175          8.86
     2.047648         41.33
     2.044751         75.59
     2.041504         44.73
     2.027145         43.30
     2.023085          0.44
     2.019095          4.52
     2.017660          0.83
     2.006901         33.80
     2.000104          0.00
     1.999324          2.88
     1.980368         36.07
     1.977748          8.53
     1.970628          1.05
     1.965337         52.15
     1.950526         38.26
     1.945569          3.35
     1.936939         19.99
     1.934929          1.34
     1.932900         31.80
     1.926901         19.47
     1.919132         29.69
     1.912833          8.65
     1.908240          4.50
     1.907442         16.06
     1.905674          4.45
     1.883732         24.92
     1.868899         62.02
     1.861808         15.21
     1.859316         14.15
     1.858605          8.66
     1.853996         33.31
     1.849847         56.00
     1.846760         15.26
     1.841973          4.19
     1.839295          1.32
     1.837994          1.07
     1.836704         41.17
     1.830778          0.00
     1.829972         51.29
     1.815606         21.23
     1.808557          7.31
     1.807671          1.40
     1.800173          2.62
     1.791846          4.13
     1.790515          0.02
     1.785484          2.28
     1.772945          0.50
     1.762020         99.22
     1.749081          5.45
     1.748415          0.16
     1.744209         39.85
     1.743469          2.30
     1.741828         11.69
     1.741763         15.29
     1.727073          2.32
     1.726821         20.14
     1.726633         25.36
     1.723257          2.23
     1.721054         14.33
     1.719981          3.69
     1.714415          0.50
     1.711791          3.99
     1.710403          4.23
     1.708596          1.19
     1.708531          1.81
     1.698191          1.32
     1.697504          0.00
     1.696083          0.24
     1.695262         66.54
     1.693940          0.65
     1.692186          0.06
     1.690104          0.04
     1.686498         22.32
     1.674615         12.97
     1.674447         86.66
     1.673090          7.11
     1.672658          0.17
     1.671864          5.54
     1.663420          0.72
     1.660980          0.16
     1.653384          1.46
     1.645510          0.77
     1.644541         17.99
     1.643957        112.64
     1.642673          1.39
     1.640795          0.49
     1.638123          0.09
     1.637495         12.47
     1.634268         65.41
     1.633100          3.18
     1.630729          0.01
     1.629846          1.48
     1.621436         80.81
     1.621251          2.18
     1.613089         61.11
     1.607415          0.67
     1.605832          0.02
     1.605379          6.72
     1.602439         43.17
     1.599928          3.71
     1.599207          9.87
     1.590742         52.01
     1.589121         16.17
     1.587443        176.32
     1.584429          0.04
     1.583134         33.90
     1.580384          2.01
     1.576416          1.98
     1.572269          5.56
     1.570732          0.48
     1.569399          0.81
     1.566183          0.01
     1.564880         10.58
     1.564786          3.43
     1.562990          6.01
     1.551025          1.56
     1.550397         12.05
     1.547791         12.72
     1.547680          2.20
     1.544997         16.84
     1.542881         90.44
     1.534933          2.22
     1.531036          1.18
     1.529445          0.38
     1.519824          2.78
     1.517541          0.56
     1.516383          2.72
     1.516277          1.29
     1.508239          1.92
     1.500636          4.35
     1.499951          0.26
     1.496423          3.05
     1.493465          0.62
     1.490942         13.20
     1.488184         20.88
     1.484596          0.06
     1.483709          0.04
     1.479536          2.72
     1.479165          1.83
     1.474858          7.22
     1.471711         30.07
     1.469421         40.82
     1.468025          3.82
     1.467984         42.52
     1.467108          0.17
     1.460972          1.28
     1.460914          3.74
     1.457577          0.39
     1.457357          7.30
     1.456246         14.74
     1.454452          8.48
     1.453820          1.74
     1.452595          0.94
     1.452211          1.41
     1.448793          5.55
     1.446194          6.90
     1.446156          2.51
     1.445041         27.73
     1.442543          5.64
     1.441220          3.74
     1.436849          7.06
     1.436471          3.34
     1.435652          0.00
     1.435086          3.34
     1.434625        166.83
     1.434165         28.40
     1.432577          1.68
     1.432461         25.33
     1.432193          8.77
     1.430647          2.51
     1.427428          6.86
     1.426414          0.94
     1.424593          0.01
     1.424066          0.07
     1.422599          1.53
     1.422012          4.02
     1.420352         42.25
     1.420071         32.13
     1.419305         28.40
     1.418856         15.82
     1.418378          0.69
     1.416206          0.64
     1.415756          7.84
     1.412518         24.21
     1.411317          0.01
     1.409872         17.60
     1.409220         14.32
     1.406906          1.41
     1.404552         10.00
     1.402806          1.31
     1.401656          9.89
     1.401309          1.99
     1.399039         28.55
     1.396548          0.87
     1.393821         23.65
     1.391970         13.97
     1.390150         11.35
     1.389570          0.52
     1.387005          0.08
     1.378826          9.26
     1.377378          0.13
     1.373835          3.91
     1.372886          2.30
     1.370763          0.52
     1.368726         10.04
     1.368558          1.15
     1.367285          0.21
     1.365709          9.52
     1.364281          9.78
     1.362351         37.02
##############################################################################
###                            Comments                                    ###
##############################################################################
###   Diffraction pattern calculated by Match!. 
###   I/Ic calculated by Match!. 
###   Space group has been derived from given symmetry operations. 
##############################################################################


