##############################################################################
###               Crystal structure data exported by Match!                ###
##############################################################################
###                           Data published by:                           ###
###                                                                        ###
###               COD (Crystallography Open Database)
##############################################################################
data_2000342
_citation_journal_full    'Acta Crystallographica Section C'
_citation_journal_volume  '48(12)'
_citation_page_first  '2104'
_citation_page_last   '2107'
_citation_year  '1992'
_citation_title  'Structure refinement of Co~3~(OH)~2~(PO~3~OH)~2~ and Co[PO~2~(OH)~2~]~2~.2H~2~O'
loop_
_publ_author_name
  'Effenberger H.'
_chemical_formula_sum  'Co H8 O10 P2'
_symmetry_space_group_name_H-M 'P 1 21/n 1'
_space_group_IT_number 14
_space_group_crystal_system 'monoclinic'
loop_
_symmetry_equiv_pos_as_xyz
   'x, y, z'
   '-x+0.5, y+0.5, -z+0.5'
   '-x, -y, -z'
   'x+0.5, -y+0.5, z+0.5'
_cell_length_a        7.26800
_cell_length_b        9.88600
_cell_length_c        5.33100
_cell_angle_alpha    90.0000
_cell_angle_beta     94.8600
_cell_angle_gamma    90.0000
_cell_formula_units_Z 2
loop_
_atom_site_label
_atom_site_fract_x
_atom_site_fract_y
_atom_site_fract_z
_atom_site_occupancy
_atom_site_B_iso_or_equiv
co      0.500   0.500   0.500    1.00000    1.096
p      0.838   0.285   0.747    1.00000    1.144
o      0.645   0.332   0.662    1.00000    1.578
o      0.864   0.134   0.740    1.00000    1.562
o      0.969   0.357   0.571    1.00000    2.177
o      0.887   0.338   0.022    1.00000    1.894
o      0.300   0.463   0.760    1.00000    1.523
h      0.342   0.431   0.892    1.00000    3.947
h      0.260   0.534   0.799    1.00000    2.842
h      0.068   0.366   0.645    1.00000    3.947
h      0.950   0.292   0.098    1.00000    5.921
_cell_measurement_wavelength    1.541874
_cell_measurement_radiation   'x-rays'
_exptl_crystal_density_diffrn    2.512000
loop_
_pd_peak_d_spacing
_pd_peak_intensity
     5.842095        671.03
     4.943000          6.99
     4.679166        578.83
     4.467478        998.63
     4.119940          0.07
     4.082634         93.69
     4.071090        151.73
     3.802916        121.83
     3.620935         28.94
     3.618601        146.86
     3.400047        549.64
     3.314382        123.56
     3.164782       1000.00
     2.999403        517.18
     2.973050        268.46
     2.921047        103.39
     2.800241         79.48
     2.765494        186.60
     2.655917         12.47
     2.651933          2.20
     2.636784         70.37
     2.573412          5.71
     2.564966         95.73
     2.488750         15.50
     2.482561         36.94
     2.471500          7.84
     2.437151          0.19
     2.357842          0.42
     2.345058          0.91
     2.339583        121.36
     2.339035        195.68
     2.276543         31.38
     2.271341         42.60
     2.264610          4.32
     2.240819         27.23
     2.233739        203.76
     2.213666         34.83
     2.179219          1.12
     2.178813          7.22
     2.169114         24.64
     2.168746        107.98
     2.162620         39.59
     2.130723          9.62
     2.119399        111.74
     2.082894         15.82
     2.067894          0.50
     2.063878        103.23
     2.059970        116.72
     2.041317          0.96
     2.035545         32.28
     2.023979         64.62
     2.016655         29.59
     1.956677         59.91
     1.954667        154.22
     1.947365         38.75
     1.936683         11.50
     1.907388         11.84
     1.901458         27.86
     1.875696          5.94
     1.870142         29.83
     1.852995         26.12
     1.848985          8.42
     1.834389         87.98
     1.810467          2.22
     1.809301          0.58
     1.808039          0.19
     1.789275         18.46
     1.782554          1.11
     1.780850          4.71
     1.779666         17.01
     1.754586          1.43
     1.746759          0.73
     1.746411         29.97
     1.742878         16.51
     1.735343          0.17
     1.732560         73.77
     1.731996         15.36
     1.727587         32.87
     1.726910          4.08
     1.700023         98.73
     1.690222         39.45
     1.687286         38.92
     1.672372         44.96
     1.669680          0.00
     1.666897          0.36
     1.663235          0.17
     1.657863          2.58
     1.657191         32.09
     1.653505        105.84
     1.647667         47.91
     1.647610         17.64
     1.630125         59.38
     1.624280         18.55
     1.624253         25.70
     1.620654          0.01
     1.613792         52.51
     1.606608          8.11
     1.596819          0.37
     1.586760          2.50
     1.585974         13.17
     1.582976          0.37
     1.582391         24.03
     1.573697         46.82
     1.565901         47.92
     1.562228          9.72
     1.559722         54.35
     1.558679         15.18
     1.552314          9.12
     1.548734          3.17
     1.545880         28.75
     1.539660         11.81
     1.533133         21.33
     1.529860         19.55
     1.529602         53.43
     1.521642         49.68
     1.521620         10.25
     1.501863          4.13
     1.499701         21.53
     1.491316          0.64
     1.490328          2.36
     1.489624         10.20
     1.489159          1.20
     1.486525          2.40
     1.480521         14.83
     1.472975          6.72
     1.472547         16.40
     1.470270          2.34
     1.460524         21.04
     1.456709         11.84
     1.449330          1.15
     1.440247         30.95
     1.439357          1.28
     1.433529          3.87
     1.433075         18.88
     1.430708         11.50
     1.430218          9.73
     1.428411          7.20
     1.426455          5.23
     1.425858          7.32
     1.425202         21.63
     1.413730          1.74
     1.409268          0.00
     1.409012          0.29
     1.400121         19.96
     1.395146          9.44
     1.393512         10.91
     1.389934          0.38
     1.386252         10.84
     1.386173         17.42
     1.384283          4.69
     1.382747          0.67
     1.373313          9.83
     1.372262         48.37
     1.370344          0.54
     1.368249         18.04
     1.364868         13.21
     1.363363          4.31
     1.360878          0.97
     1.360252         32.30
     1.357382          1.31
     1.357030          3.89
     1.355329          0.35
     1.346601          2.01
     1.335972          1.64
     1.335255         11.04
     1.333705          4.09
     1.327958         32.45
     1.325966         15.97
     1.325952         21.10
     1.323194          8.56
     1.319708          0.98
     1.319023          3.13
     1.318662          0.24
     1.318392         11.14
     1.316137          0.02
     1.315747          0.00
     1.314533         27.17
     1.314489          7.28
     1.312357          0.66
     1.311448          5.00
     1.310584          1.93
     1.307841          6.33
     1.307012          0.30
     1.303419          0.36
     1.295751          0.25
     1.286706          8.19
     1.286426         52.95
     1.283472          2.19
     1.282483          1.09
     1.282373          0.36
     1.280958          2.81
     1.278143          0.01
     1.276251          0.05
     1.276210          8.66
     1.275516          5.86
     1.274803          1.24
     1.271718         28.87
     1.268072          0.15
     1.267639          3.14
     1.265302         34.33
     1.263652          3.63
     1.249605          6.61
     1.246953          0.68
     1.245457          2.98
     1.244375          3.46
     1.241281         10.50
     1.237126          0.03
     1.236717          7.43
     1.235750          2.67
     1.235324          5.00
     1.231708          0.27
     1.230357         13.24
     1.227862          3.05
     1.224900          0.46
     1.224063          2.28
     1.220776          0.56
     1.219205          5.51
     1.218991          2.06
     1.218576          1.83
     1.218142          3.77
     1.214939          0.16
     1.213953          1.54
     1.206978         17.84
     1.206356         21.19
     1.206200         21.26
     1.204903          9.22
     1.203608          1.40
     1.202764          6.57
     1.201097          7.45
     1.200439          6.55
     1.199346          1.76
     1.198798         13.64
     1.198618          8.33
     1.198082          0.10
     1.197051         13.85
     1.195073          0.53
     1.193709          0.50
     1.192307          0.09
     1.191025          2.87
     1.190407          1.11
     1.189517          0.01
     1.188327          0.74
     1.183652          1.97
     1.180282          0.77
     1.178921          5.15
     1.178834          3.39
     1.177178          3.91
     1.173232          3.35
     1.173032          0.00
     1.172529          0.03
     1.170738         14.12
     1.169791         11.70
     1.169518          9.35
     1.168634          8.33
     1.168419          5.00
     1.166495          1.49
     1.165332          7.99
     1.164823          0.62
     1.164709          1.35
     1.164140          0.30
     1.163954          3.25
     1.162614          2.06
     1.157863          0.68
     1.151180          0.00
     1.148782          0.13
     1.148182         17.34
     1.141489          0.98
     1.140345          0.02
     1.139220          0.19
     1.139118          0.95
     1.138271          3.20
     1.135670          1.23
     1.135655          2.01
     1.133803          0.20
     1.133349          0.26
     1.132305          1.46
     1.128250          0.71
     1.127929          2.54
     1.126845          3.37
     1.126292         27.70
     1.125632          0.01
     1.125118          0.00
     1.125071          1.40
     1.120410          5.22
     1.116869          0.02
     1.116805          2.34
     1.113554          0.01
     1.113265          9.55
     1.109809          1.76
     1.106833         18.56
     1.104794          4.36
     1.104087          2.68
     1.103185          2.17
     1.102393          0.04
     1.101450          0.28
     1.101424          0.01
     1.101305          7.44
     1.100169          0.40
     1.100152          2.53
     1.099994          1.12
     1.099633          0.80
     1.097504          4.09
     1.096021          0.07
     1.090833          0.53
     1.090684          2.33
     1.090330         17.48
     1.089609          0.40
     1.089407         13.59
     1.087829          7.66
     1.086023          1.32
     1.085494          4.42
     1.084955          0.21
     1.084557          8.04
     1.084373          5.06
     1.082984          1.12
     1.081310          1.79
     1.079294          0.91
     1.078854          6.94
     1.078635         22.51
     1.078611          0.96
     1.077240          1.11
     1.075895          0.96
     1.075685          4.33
     1.073698          0.06
     1.072001          0.21
     1.070901          0.97
     1.068977          3.04
     1.066675          0.01
     1.065361          0.06
     1.064143          5.64
     1.063819          0.09
     1.061369          0.01
     1.059700          4.90
     1.059229          0.04
     1.058035          6.35
     1.058032          3.35
     1.057768          0.92
     1.056285          1.45
     1.054927          4.83
     1.052626          1.54
     1.052535         15.44
     1.051142          0.39
     1.047124          0.62
     1.046575          0.00
     1.043533          7.79
     1.041447         10.86
     1.040855         17.64
     1.040309          0.02
     1.038649          0.01
     1.038557          0.99
     1.037794          1.46
     1.036010          0.00
     1.035443         16.03
     1.034523          0.30
     1.033947          2.88
     1.033426          5.00
     1.033147          0.59
     1.032873          2.14
     1.032011          5.69
     1.031939          1.58
     1.031669          1.16
     1.030537         13.70
     1.030440          1.27
     1.030196          0.26
     1.029985          0.04
     1.029910          4.00
     1.028934          2.52
     1.026434          4.87
     1.026351         12.57
     1.025304          4.50
     1.024736          1.08
     1.024440          5.93
     1.023919          1.36
     1.023160          0.09
     1.021054          0.81
     1.020659          4.34
     1.017773          4.99
     1.017503          6.98
     1.016893          0.05
     1.016366         10.14
     1.015056          0.15
     1.014249          3.83
     1.013702          0.03
     1.013354          3.14
     1.012653          0.28
     1.012612          0.46
     1.011989          1.11
     1.011314          2.65
     1.011154          4.83
     1.011121          4.46
     1.010322          2.81
     1.010228          0.01
     1.009734          7.25
     1.008377          0.94
     1.008327          7.73
     1.007385          1.60
##############################################################################
###                            Comments                                    ###
##############################################################################
###   Diffraction pattern calculated by Match!. 
###   I/Ic calculated by Match!. 
##############################################################################


