##############################################################################
###               Crystal structure data exported by Match!                ###
##############################################################################
###                           Data published by:                           ###
###                                                                        ###
###               COD (Crystallography Open Database)
##############################################################################
data_9006289
_citation_journal_full    'Physics and Chemistry of Minerals'
_citation_journal_volume  '21'
_citation_page_first  '269'
_citation_page_last   '284'
_citation_year  '1994'
_citation_title  'Framework silica structures generated using simulated annealingwith a potential energy function based on an H6Si2O7 moleculeSample: 6'
loop_
_publ_author_name
  'Boisen M. B.'
  'Gibbs G. V.'
  'Bukowinski M. S. T.'
_chemical_formula_sum  'O2 Si'
_chemical_name_common  'Silica'
_symmetry_space_group_name_H-M 'I m a 2'
_space_group_IT_number 46
_space_group_crystal_system 'orthorhombic'
loop_
_symmetry_equiv_pos_as_xyz
   'x, y, z'
   'x+0.5, y+0.5, z+0.5'
   '-x, -y, z'
   '-x+0.5, -y+0.5, z+0.5'
   '-x+0.5, y, z'
   '-x, y+0.5, z+0.5'
   'x+0.5, -y, z'
   'x, -y+0.5, z+0.5'
_cell_length_a       10.21700
_cell_length_b        7.95790
_cell_length_c        4.95650
_cell_angle_alpha    90.0000
_cell_angle_beta     90.0000
_cell_angle_gamma    90.0000
loop_
_atom_site_label
_atom_site_fract_x
_atom_site_fract_y
_atom_site_fract_z
_atom_site_occupancy
_atom_site_B_iso_or_equiv
si      0.102   0.357   0.500    1.00000    1.000
o      0.579   0.691   0.185    1.00000    1.000
o      0.750   0.925   0.042    1.00000    1.000
o      0.000   0.500   0.594    1.00000    1.000
_cell_measurement_wavelength    1.541874
_cell_measurement_radiation   'x-rays'
_exptl_crystal_density_diffrn    1.981000
loop_
_pd_peak_d_spacing
_pd_peak_intensity
     6.278206       1000.00
     5.108500        149.10
     4.207182        518.76
     3.978950          7.76
     3.247594          6.84
     3.139103          6.67
     3.130994        274.16
     2.968942        194.89
     2.567510         19.67
     2.554250         13.18
     2.478250         80.95
     2.338760         48.64
     2.305156         35.90
     2.293640         71.00
     2.229724          8.59
     2.183367         11.64
     2.149476         39.86
     2.126500         18.75
     2.103591          5.02
     2.092735          0.74
     1.989475         10.70
     1.979193          6.88
     1.945133          0.20
     1.943199         15.56
     1.853852          0.47
     1.816870          6.24
     1.783108         19.69
     1.778649          5.92
     1.724913         49.83
     1.706570          1.24
     1.702833         22.05
     1.623797         12.01
     1.623122         16.28
     1.618788          0.18
     1.617671         22.91
     1.598915          8.21
     1.578446          9.54
     1.572613          4.82
     1.569552         16.40
     1.565497          7.88
     1.551417         16.61
     1.546527          3.11
     1.542196          0.68
     1.515370          4.13
     1.509119         27.30
     1.484471          2.82
     1.452799          1.23
     1.441895         21.77
     1.435624         14.91
     1.403461          5.11
     1.402394         22.99
     1.392483         29.82
     1.376606         13.31
     1.369927          4.89
     1.366644          8.40
     1.355279          1.39
     1.352361          6.84
     1.327833          3.70
     1.326317          4.53
     1.325989         13.55
     1.323541          2.97
     1.320744         24.60
     1.303271          2.55
     1.293668          8.55
     1.283755          5.22
     1.278773          2.93
     1.277125          1.35
     1.271281          4.22
     1.261305          1.85
     1.255641          0.14
     1.246298         16.17
     1.242243          9.90
     1.239125          3.60
     1.229296         13.67
     1.222604          1.26
     1.222061          7.32
     1.216022          1.46
     1.215673          4.06
     1.204206          0.49
     1.199184         13.48
     1.190800         13.58
     1.183083          2.64
     1.177087          2.70
     1.172818          8.26
     1.169380          1.46
     1.152578          1.33
     1.152175          8.18
     1.146820          9.22
     1.146238          0.31
     1.144998          0.86
     1.139897          3.07
     1.136405          4.73
     1.135248          4.10
     1.132027          7.27
     1.129870          0.12
     1.123845          2.54
     1.120893          0.89
     1.120078          0.57
     1.118429          1.91
     1.115958          2.15
     1.114862          5.49
     1.108070          6.50
     1.091683          1.51
     1.085505          0.25
     1.082888          5.35
     1.082531         10.31
     1.079274          0.07
     1.078350          0.77
     1.075719          3.71
     1.074738          0.30
     1.073519          0.24
     1.066235          0.98
     1.066109          1.28
     1.063250          3.00
     1.054728         12.60
     1.051796          5.38
     1.050268          0.18
     1.046368          0.58
     1.045765          0.12
     1.043665          0.09
     1.030187          1.44
     1.029019          0.80
     1.028065          0.22
     1.023520          0.44
     1.021700          2.63
     1.016537          6.84
##############################################################################
###                            Comments                                    ###
##############################################################################
###   Diffraction pattern calculated by Match!. 
###   I/Ic calculated by Match!. 
###   Space group has been derived from given symmetry operations. 
##############################################################################


