##############################################################################
###               Crystal structure data exported by Match!                ###
##############################################################################
###                           Data published by:                           ###
###                                                                        ###
###               COD (Crystallography Open Database)
##############################################################################
data_9015714
_citation_journal_full    'Journal of Solid State Chemistry'
_citation_journal_volume  '122'
_citation_page_first  '273'
_citation_page_last   '280'
_citation_year  '1996'
_citation_title  'A crystallographic contribution to the mechanism of a mechanicallyinduced solid state reactionNote: milling time = 36 min'
loop_
_publ_author_name
  'Calos N. J.'
  'Forrester J. S.'
  'Schaffer G. B.'
_chemical_formula_sum  'Cu O'
_chemical_name_mineral  'Tenorite'
_symmetry_space_group_name_H-M 'C 1 2/c 1'
_space_group_IT_number 15
_space_group_crystal_system 'monoclinic'
loop_
_symmetry_equiv_pos_as_xyz
   'x, y, z'
   'x+0.5, y+0.5, z'
   '-x, y, -z+0.5'
   '-x+0.5, y+0.5, -z+0.5'
   '-x, -y, -z'
   '-x+0.5, -y+0.5, -z'
   'x, -y, z+0.5'
   'x+0.5, -y+0.5, z+0.5'
_cell_length_a        4.67910
_cell_length_b        3.48050
_cell_length_c        5.11830
_cell_angle_alpha    90.0000
_cell_angle_beta     98.5981
_cell_angle_gamma    90.0000
loop_
_atom_site_label
_atom_site_fract_x
_atom_site_fract_y
_atom_site_fract_z
_atom_site_occupancy
_atom_site_B_iso_or_equiv
cu      0.250   0.250   0.000    1.00000    1.188
o      0.000   0.452   0.250    1.00000    8.421
_cell_measurement_wavelength    1.541874
_cell_measurement_radiation   'x-rays'
_exptl_crystal_density_diffrn    6.411000
loop_
_pd_peak_d_spacing
_pd_peak_intensity
     2.781334         50.86
     2.535562       1000.00
     2.530389        372.20
     2.349955        970.32
     2.313257        290.79
     1.961509          8.26
     1.850667        245.82
     1.793192          4.59
     1.740250        125.56
     1.645670          0.86
     1.592855        130.29
     1.503526        178.80
     1.433878        157.69
     1.409962          0.70
     1.408935        134.55
     1.390667        137.01
     1.388105        115.35
     1.372856          0.19
     1.312639         90.87
     1.311188          0.13
     1.310157          0.36
     1.267781         73.36
     1.265194         45.10
     1.211250          0.06
     1.192754          0.14
     1.187257         27.63
     1.174978         54.00
     1.165771          0.11
     1.162877         54.55
     1.156628         30.00
     1.125324          0.03
     1.123768          0.03
     1.116975         21.93
     1.114507          0.07
     1.107057         49.01
     1.090127         40.94
     1.046126         17.60
     1.042398          0.02
     1.028633          0.01
     1.023332         33.37
     1.015682         34.94
     1.014620          0.01
     1.013002          0.03
##############################################################################
###                            Comments                                    ###
##############################################################################
###   Synthetic
###   Diffraction pattern calculated by Match!. 
###   I/Ic calculated by Match!. 
###   Space group has been derived from given symmetry operations. 
##############################################################################


