##############################################################################
###               Crystal structure data exported by Match!                ###
##############################################################################
###                           Data published by:                           ###
###                                                                        ###
###               COD (Crystallography Open Database)
##############################################################################
data_9006307
_citation_journal_full    'Physics and Chemistry of Minerals'
_citation_journal_volume  '21'
_citation_page_first  '269'
_citation_page_last   '284'
_citation_year  '1994'
_citation_title  'Framework silica structures generated using simulated annealingwith a potential energy function based on an H6Si2O7 moleculeSample: 24'
loop_
_publ_author_name
  'Boisen M. B.'
  'Gibbs G. V.'
  'Bukowinski M. S. T.'
_chemical_formula_sum  'O2 Si'
_chemical_name_common  'Silica'
_symmetry_space_group_name_H-M 'P 1'
_space_group_IT_number 1
_space_group_crystal_system 'triclinic'
loop_
_symmetry_equiv_pos_as_xyz
   'x, y, z'
_cell_length_a        4.64090
_cell_length_b        5.29530
_cell_length_c        6.79560
_cell_angle_alpha   111.5060
_cell_angle_beta     93.9553
_cell_angle_gamma    90.7337
loop_
_atom_site_label
_atom_site_fract_x
_atom_site_fract_y
_atom_site_fract_z
_atom_site_occupancy
_atom_site_B_iso_or_equiv
si      0.383   0.122   0.912    1.00000    1.000
si      0.985   0.058   0.210    1.00000    1.000
si      0.551   0.078   0.512    1.00000    1.000
si      0.853   0.456   0.909    1.00000    1.000
o      0.256   0.111   0.384    1.00000    1.000
o      0.239   0.960   0.047    1.00000    1.000
o      0.463   0.928   0.673    1.00000    1.000
o      0.804   0.933   0.356    1.00000    1.000
o      0.175   0.351   0.887    1.00000    1.000
o      0.847   0.780   0.034    1.00000    1.000
o      0.679   0.294   0.030    1.00000    1.000
o      0.687   0.375   0.671    1.00000    1.000
_cell_measurement_wavelength    1.541874
_cell_measurement_radiation   'x-rays'
_exptl_crystal_density_diffrn    2.577000
loop_
_pd_peak_d_spacing
_pd_peak_intensity
     6.302628        422.05
     4.922486       1000.00
     4.839582        435.87
     4.625946         47.60
     3.878644        190.98
     3.595890        219.68
     3.442236        179.82
     3.378720         23.91
     3.329781        155.60
     3.310355        458.93
     3.304009         82.63
     3.253512         22.81
     3.151314        102.33
     2.796336         16.43
     2.732399        220.17
     2.706039         69.36
     2.646684         31.05
     2.617483        112.95
     2.595340         51.32
     2.513451          7.75
     2.461243         52.78
     2.419791         24.32
     2.312973         18.51
     2.308109         54.49
     2.297406         24.34
     2.286566         34.37
     2.255359         40.58
     2.229219         36.71
     2.210790         39.01
     2.162408         69.01
     2.136780         16.60
     2.127266         42.18
     2.126367         11.90
     2.123702         65.14
     2.117806         28.16
     2.103695          4.91
     2.100876         19.42
     2.082289          1.29
     2.070466          5.14
     2.061088          6.05
     2.050880         26.16
     2.003378         24.94
     1.997354         36.36
     1.976361         16.06
     1.972569          1.29
     1.964794          9.27
     1.939322         13.31
     1.935749          8.36
     1.917983          3.84
     1.867284         37.64
     1.858249          6.21
     1.840564          8.56
     1.838310         29.92
     1.834565          7.65
     1.810787          2.93
     1.797945         35.66
     1.753154          1.00
     1.751090          9.97
     1.741741         12.08
     1.732315          8.72
     1.721118         27.59
     1.717304          5.85
     1.696510          6.00
     1.692571          1.57
     1.689360          1.85
     1.671013         25.59
     1.664890          0.12
     1.655177          5.84
     1.653150          1.03
     1.652005          8.56
     1.651358          3.12
     1.640829         23.39
     1.630139         12.61
     1.629919          0.13
     1.627645         19.97
     1.627210          6.68
     1.626756         18.07
     1.620306          4.95
     1.613194         33.14
     1.602463         45.85
     1.582351         14.82
     1.575657          8.00
     1.570722          5.54
     1.569964          8.29
     1.566822          0.33
     1.563838          3.74
     1.561564          9.27
     1.554325          0.02
     1.546899          1.20
     1.541982          2.90
     1.533013          7.36
     1.532897         36.47
     1.528922          1.50
     1.526813          0.74
     1.525961          1.67
     1.513632          5.49
     1.509047         21.46
     1.497241         33.89
     1.490788          1.03
     1.489011          6.65
     1.483714         17.73
     1.477981          2.14
     1.471154          7.30
     1.462004          1.61
     1.460590         38.72
     1.456717          2.26
     1.454545          2.48
     1.437913          6.55
     1.434142          1.38
     1.430506         14.06
     1.429686          1.95
     1.423838          2.22
     1.416581          4.94
     1.414586         31.58
     1.412076          9.21
     1.398168          3.94
     1.391503         10.16
     1.391229          3.44
     1.382713         10.88
     1.380064          0.24
     1.372541          5.30
     1.368277         16.47
     1.366199         20.20
     1.364979          2.51
     1.364848          7.81
     1.363512         10.17
     1.362025          8.31
     1.353020         22.38
     1.352238          8.12
     1.346095          1.29
     1.343688          2.10
     1.339957          8.21
     1.339467          4.55
     1.338700         11.86
     1.336048          5.78
     1.335773          1.18
     1.331531         10.52
     1.329431         31.01
     1.328468          6.32
     1.326092          5.25
     1.323342          2.13
     1.321942          4.63
     1.318694         17.10
     1.314097         23.91
     1.313091         12.38
     1.312624         18.61
     1.310638          6.10
     1.308862         21.72
     1.308741          5.69
     1.301342          7.37
     1.297670          1.01
     1.292881          1.75
     1.288951          7.87
     1.288503          4.97
     1.286315         15.72
     1.283233          0.61
     1.279200         10.12
     1.275981          1.42
     1.275554          5.95
     1.269594          8.14
     1.268662         37.00
     1.267782          8.40
     1.267678         30.47
     1.266294          2.85
     1.261645          7.72
     1.260526          3.32
     1.256725          0.24
     1.250327         14.53
     1.247598          3.57
     1.245570          5.74
     1.243977          2.07
     1.243454          0.93
     1.241374          3.78
     1.239858          5.93
     1.237074          3.57
     1.236240          5.22
     1.235374         10.33
     1.230622          2.34
     1.218023          0.96
     1.217213          1.28
     1.216887          3.07
     1.209992          0.48
     1.209896          2.53
     1.206256          5.24
     1.202385          3.62
     1.201574          3.52
     1.198630          0.93
     1.198445         10.65
     1.197803          4.10
     1.196949          8.34
     1.195271          7.30
     1.192465          3.56
     1.191854          1.06
     1.188760         11.09
     1.182407          2.64
     1.177315          3.28
     1.176429          1.70
     1.172727          0.34
     1.170584          5.30
     1.164704         10.03
     1.156486          0.00
     1.154658          7.71
     1.154423          4.74
     1.154055          1.56
     1.153831          8.53
     1.150952          3.10
     1.148703          0.12
     1.148460          0.05
     1.148457          5.00
     1.147498          0.26
     1.147412          0.42
     1.145607          0.79
     1.145517          2.68
     1.143283          3.20
     1.141036          4.31
     1.136263          1.53
     1.135452          3.78
     1.134724          1.00
     1.131927          0.19
     1.130055          9.97
     1.129544          1.00
     1.128616          3.68
     1.128004          0.32
     1.127679          2.04
     1.126240          0.39
     1.125539          1.78
     1.123253          0.70
     1.121834          4.52
     1.121269          0.81
     1.119650          0.02
     1.118884          0.45
     1.116827          3.61
     1.115684          5.15
     1.114609          3.89
     1.114519          6.39
     1.114327          7.32
     1.112925          0.59
     1.112679          0.79
     1.109927          4.94
     1.108981          0.13
     1.107897          2.25
     1.105395          3.40
     1.104746          0.83
     1.103452          0.08
     1.102438          2.28
     1.101623          8.12
     1.101336          2.24
     1.096752          0.41
     1.095321          1.06
     1.093982          0.12
     1.091297          0.91
     1.089783          0.94
     1.087926          0.34
     1.086531          0.63
     1.085487          1.73
     1.084504          7.37
     1.081204          0.97
     1.079277          2.70
     1.075718          3.37
     1.074050          3.37
     1.071742          0.53
     1.071376          1.42
     1.069641          1.08
     1.069546          5.33
     1.068934          1.39
     1.068390          2.55
     1.067787          0.19
     1.066445          0.95
     1.065535          0.75
     1.063990          0.23
     1.063817          1.64
     1.063633          2.03
     1.063475          2.47
     1.063183          3.60
     1.062646          0.35
     1.061851          4.82
     1.060863          3.65
     1.058903          5.80
     1.057914          2.46
     1.057058          1.19
     1.055531          5.67
     1.053048          0.35
     1.052873          5.95
     1.051847          1.49
     1.050438          7.95
     1.048824          3.22
     1.045556          2.12
     1.043896          1.95
     1.043285          0.08
     1.042340          2.99
     1.041144          0.44
     1.038236          2.22
     1.035233          7.12
     1.034731          0.54
     1.034436          3.30
     1.034248          2.84
     1.032984          1.66
     1.032424          0.72
     1.030544          0.88
     1.030022          0.78
     1.029000          1.44
     1.027553          0.76
     1.026602          3.40
     1.025685          3.35
     1.025440          1.38
     1.020852          0.42
     1.020359          1.01
     1.016162          2.20
     1.015267          1.03
     1.014137          2.29
     1.014069          5.96
     1.012147          0.51
     1.009670          0.72
     1.008041          2.51
     1.007280          0.49
##############################################################################
###                            Comments                                    ###
##############################################################################
###   Diffraction pattern calculated by Match!. 
###   I/Ic calculated by Match!. 
###   Space group has been derived from given symmetry operations. 
##############################################################################


