##############################################################################
###               Crystal structure data exported by Match!                ###
##############################################################################
###                           Data published by:                           ###
###                                                                        ###
###               COD (Crystallography Open Database)
##############################################################################
data_9008099
_citation_journal_full    'Zeitschrift fur Kristallographie'
_citation_journal_volume  '121'
_citation_page_first  '87'
_citation_page_last   '113'
_citation_year  '1965'
_citation_title  'Determination and refinement of the crystal structure of turquois,CuAl6(PO4)4(OH)8*4H2O Locality: Virginia, USA'
loop_
_publ_author_name
  'Cid-Dresdner H'
_chemical_formula_sum  'Al6 Cu H16 O28 P4'
_chemical_name_mineral  'Turquoise'
_symmetry_space_group_name_H-M 'P -1'
_space_group_IT_number 2
_space_group_crystal_system 'triclinic'
loop_
_symmetry_equiv_pos_as_xyz
   'x, y, z'
   '-x, -y, -z'
_cell_length_a        7.42400
_cell_length_b        7.62900
_cell_length_c        9.91000
_cell_angle_alpha    68.6100
_cell_angle_beta     69.7100
_cell_angle_gamma    65.0800
loop_
_atom_site_label
_atom_site_fract_x
_atom_site_fract_y
_atom_site_fract_z
_atom_site_occupancy
_atom_site_B_iso_or_equiv
cu      0.000   0.000   0.000    1.00000    1.411
p      0.350   0.387   0.943    1.00000    0.261
p      0.842   0.387   0.457    1.00000    0.204
al      0.284   0.177   0.752    1.00000    0.337
al      0.752   0.186   0.274    1.00000    0.293
al      0.245   0.502   0.244    1.00000    0.215
o      0.068   0.363   0.384    1.00000    0.452
o      0.806   0.344   0.626    1.00000    0.507
o      0.275   0.355   0.113    1.00000    0.540
o      0.066   0.064   0.197    1.00000    0.763
o      0.237   0.074   0.629    1.00000    0.631
o      0.733   0.086   0.124    1.00000    0.576
o      0.298   0.402   0.606    1.00000    0.724
o      0.325   0.223   0.905    1.00000    0.789
o      0.986   0.281   0.847    1.00000    0.568
o      0.576   0.047   0.685    1.00000    0.804
o      0.787   0.407   0.132    1.00000    0.642
o      0.463   0.295   0.328    1.00000    0.515
o      0.786   0.228   0.432    1.00000    0.531
o      0.578   0.366   0.899    1.00000    0.311
h      0.867   0.033   0.753    1.00000    0.820
h      0.150   0.157   0.150    1.00000    0.820
h      0.633   0.143   0.590    1.00000    0.949
h      0.393   0.083   0.290    1.00000    0.949
h      0.143   0.167   0.593    1.00000    0.679
h      0.650   0.143   0.100    1.00000    0.660
h      0.980   0.350   0.900    1.00000    0.610
h      0.450   0.268   0.423    1.00000    0.610
_cell_measurement_wavelength    1.541874
_cell_measurement_radiation   'x-rays'
_exptl_crystal_density_diffrn    2.927000
loop_
_pd_peak_d_spacing
_pd_peak_intensity
     8.982897        186.87
     6.686347         90.07
     6.554405         81.04
     6.177653         81.16
     6.165803        477.92
     5.986596        218.21
     5.750896         83.55
     4.804704         49.54
     4.798062        196.32
     4.604971         68.52
     4.491449          4.12
     4.270854          6.35
     4.177095         45.55
     4.118534          4.52
     4.047096         28.86
     3.794826         11.50
     3.709892        131.14
     3.702195         35.71
     3.670221       1000.00
     3.497770         38.89
     3.493626         31.86
     3.436861        426.86
     3.435047         32.96
     3.409085        139.54
     3.363672         30.05
     3.351003        121.29
     3.343174          2.52
     3.333952         12.32
     3.282739        115.92
     3.277203        268.68
     3.151459         30.08
     3.088826         23.06
     3.082902         80.74
     3.039664         65.69
     3.028279         10.28
     2.994648         20.66
     2.994299         13.79
     2.993298          3.87
     2.985355         20.89
     2.981987         39.72
     2.901075        670.29
     2.899118         21.62
     2.896349        287.06
     2.875448         42.77
     2.874351         62.97
     2.873074         12.88
     2.840777         24.06
     2.726414         34.24
     2.639213         16.98
     2.614483          0.58
     2.611655         20.42
     2.584908          4.35
     2.567403         14.26
     2.521255         59.05
     2.515476         18.08
     2.514856         90.31
     2.503332         13.60
     2.491822         13.72
     2.475220         36.64
     2.459554         26.53
     2.456880         18.11
     2.454490          6.54
     2.453150          0.16
     2.431642         37.83
     2.423790         31.23
     2.414817         21.36
     2.403182          9.67
     2.402352         50.48
     2.399031         68.46
     2.394271          3.87
     2.390749          9.67
     2.388756          2.63
     2.367829          9.32
     2.366977          2.95
     2.352553         10.76
     2.348773          9.59
     2.344621         73.35
     2.341360         10.32
     2.320957          4.27
     2.316068         66.41
     2.315139         69.41
     2.306142          5.86
     2.302485        120.87
     2.296722         37.00
     2.294893          5.89
     2.291205          5.86
     2.289665         50.14
     2.254202          2.81
     2.245724          4.99
     2.244017          3.29
     2.238664          4.51
     2.228782         37.39
     2.227231         28.82
     2.225155        107.46
     2.200517          1.11
     2.184802         20.61
     2.183105         60.15
     2.172729          1.90
     2.169507         18.24
     2.135427          1.33
     2.114079         15.74
     2.111975        122.58
     2.098602          1.16
     2.088548          1.21
     2.085639         19.47
     2.061002        161.88
     2.060458          1.05
     2.059267         18.37
     2.059218         11.64
     2.055268         43.98
     2.054577          1.00
     2.043907          5.23
     2.029082          0.04
     2.028076          6.04
     2.023548         50.54
     2.019513        284.95
     1.995532          1.35
     1.995016          8.41
     1.990667          8.26
     1.989554          5.86
     1.980758          0.79
     1.980183          0.04
     1.978098          1.73
     1.975732          1.00
     1.974578          5.32
     1.968034          2.80
     1.967113          3.22
     1.963711         11.16
     1.951815          6.37
     1.941467          0.20
     1.934063          9.65
     1.933428          0.15
     1.931262         20.19
     1.929967          0.44
     1.921609          7.60
     1.916965          3.09
     1.910355          2.99
     1.908629          2.02
     1.904375         92.08
     1.897413         31.46
     1.896301         20.18
     1.894008          1.47
     1.879310          0.49
     1.874568          2.20
     1.872834          5.78
     1.858879          3.20
     1.857204         27.80
     1.857072          7.68
     1.855831          3.36
     1.854946          0.65
     1.851097         66.83
     1.844841          2.96
     1.843473        116.46
     1.841738          2.00
     1.835233          1.38
     1.835111         67.91
     1.831339          0.10
     1.829007          0.35
     1.822373          0.01
     1.819010        144.65
     1.817145          1.58
     1.815231          4.33
     1.812315         14.15
     1.810510         17.12
     1.810036         42.52
     1.808890          7.54
     1.808719          0.37
     1.808502          0.96
     1.807947          0.75
     1.796579          0.15
     1.785385          8.86
     1.783887         67.41
     1.782969          0.61
     1.777049         42.05
     1.776167          7.59
     1.769077          2.45
     1.765066          3.70
     1.763882          6.45
     1.754314          4.59
     1.753442          4.46
     1.751909          2.97
     1.748885          0.34
     1.746813          0.21
     1.744388          1.18
     1.740388          3.34
     1.739642          6.12
     1.732475         10.36
     1.731631          4.27
     1.730444         19.12
     1.725043          1.77
     1.724772          0.97
     1.722803         10.25
     1.722428         42.84
     1.721747          0.02
     1.718430         19.30
     1.717524         21.93
     1.704542          0.48
     1.703769          3.62
     1.701559          3.99
     1.690741          3.87
     1.688795          0.88
     1.687869          4.11
     1.681836          1.98
     1.681304         10.81
     1.675550          4.64
     1.675501         20.98
     1.673296          2.62
     1.671587          6.48
     1.666976         13.98
     1.666312          3.87
     1.665539          3.96
     1.651303          3.96
     1.650866          0.22
     1.641370          0.02
     1.639709          1.54
     1.638601         36.68
     1.638483          1.36
     1.637497          1.23
     1.635358         49.55
     1.633385         25.17
     1.633052          2.57
     1.625589          3.18
     1.624837          1.39
     1.623845          6.81
     1.623678          2.96
     1.622760          1.80
     1.616957          3.50
     1.616339          7.09
     1.611246          5.64
     1.609055          5.11
     1.607743         29.91
     1.603923          1.23
     1.603664         31.90
     1.603075          0.33
     1.601568          3.33
     1.601526          2.62
     1.600841          2.38
     1.599726          0.47
     1.599354          4.35
     1.598375          0.90
     1.595657         26.85
     1.586143          8.97
     1.585856         16.76
     1.582689          4.61
     1.582298          0.60
     1.579443         67.94
     1.575729          1.80
     1.575638          7.81
     1.572308          1.77
     1.572068          6.08
     1.568158         64.73
     1.566467          4.33
     1.562880          6.76
     1.561736          1.42
     1.561462          6.93
     1.552405          1.77
     1.550618          0.22
     1.550118         12.68
     1.548273         50.93
     1.547850          4.08
     1.544413         17.07
     1.544213          2.64
     1.543679          5.78
     1.541451         13.28
     1.540793          4.93
     1.539956         11.70
     1.537899          0.06
     1.535991         11.46
     1.534990          0.00
     1.527450          4.56
     1.527247         28.15
     1.523439          3.07
     1.522965          0.37
     1.519832          0.04
     1.518182          0.01
     1.516574          0.94
     1.514351         16.84
     1.514140         10.30
     1.512508          4.29
     1.508752         82.90
     1.508510          2.16
     1.506509          0.00
     1.502789          2.38
     1.499322          0.00
     1.497324          4.43
     1.497150          9.44
     1.496846          3.69
     1.496649         29.67
     1.492677          2.45
     1.490994          0.29
     1.489351        110.59
     1.486940          3.17
     1.486752          0.00
     1.485618          2.47
     1.485165          3.97
     1.484312          1.06
     1.482582          1.07
     1.482530          0.19
     1.480158         42.15
     1.479712         35.28
     1.477671          6.95
     1.472845         19.98
     1.472834         24.06
     1.471228         10.65
     1.469302         10.83
     1.466001          1.93
     1.463176          0.29
     1.462912         19.67
     1.461769          6.86
     1.458473          2.09
     1.456356          0.85
     1.454538          0.65
     1.452856         14.20
     1.451035          0.53
     1.450537         45.12
     1.449559          0.01
     1.448175          0.56
     1.442466          4.71
     1.440900          0.00
     1.440324          3.67
     1.438266          8.44
     1.437724         25.78
     1.437606          1.40
     1.437175         11.44
     1.436822          0.43
     1.436537          9.95
     1.436119          6.14
     1.427110          6.73
     1.426956         15.41
     1.426612          0.03
     1.425974          2.68
     1.425297         25.74
     1.425155          0.52
     1.423618         45.83
     1.422025         15.41
     1.420389          1.71
     1.419111          0.87
     1.419041         21.02
     1.416744          6.33
     1.414726          4.08
     1.414223          5.93
     1.414045          7.13
     1.413601          2.15
     1.412811          1.21
     1.412107          2.70
     1.410998         37.10
     1.410755          0.29
     1.406600          1.04
     1.399726          4.34
     1.398411          4.30
     1.397638          0.11
     1.395613          3.69
     1.395253          0.90
     1.394578          7.07
     1.393544          1.63
     1.393470          3.89
     1.392365          0.53
     1.392085         13.47
     1.391897          4.05
     1.391546          2.69
     1.390867          6.39
     1.390342          5.56
     1.386950          0.07
     1.385742          3.28
     1.384728          0.08
     1.382515          5.31
     1.382497          0.39
     1.382433          0.81
     1.381484         14.48
     1.379722          4.86
     1.378415          8.84
     1.377640          1.96
     1.377173          0.50
     1.375164          0.78
     1.375143          0.78
     1.372845          2.79
     1.372528         22.86
     1.368935          0.44
     1.367074          1.42
     1.366874          1.49
     1.366715          3.82
     1.365951          3.23
     1.365204          6.51
     1.363915          1.69
     1.363795          1.64
     1.363207          6.36
     1.361615          0.57
     1.359929          0.02
     1.358894          3.43
     1.357854          1.63
     1.355057         13.90
     1.354210          0.72
     1.353159          0.20
     1.351955          1.12
     1.351638         20.02
     1.349032          0.00
     1.347709         47.88
     1.347128          7.36
     1.346533          7.10
     1.346078         34.74
     1.345818          2.38
     1.343733          0.84
     1.341723          0.56
     1.339837          0.27
     1.337269         14.48
     1.336893         11.97
     1.334551          0.08
     1.334010          0.18
     1.333937          0.75
     1.333366         26.18
     1.332043          5.60
     1.331577          1.36
     1.331269         19.40
     1.330770          4.45
     1.330440          0.63
     1.330285         12.47
     1.328653          0.53
     1.326906          0.55
     1.326425         11.29
     1.325777          2.55
     1.324869          0.13
     1.324699          5.38
     1.323411          7.08
     1.322091          0.72
     1.319606         14.85
     1.319535          2.05
     1.317479          8.85
     1.317448          3.69
     1.316574          0.00
     1.316529          1.72
     1.316262          1.75
     1.310881          1.46
     1.308991          0.86
     1.307241          3.46
     1.306700          1.31
     1.305957          4.14
     1.305827         15.08
     1.305643          0.59
     1.305223          3.19
     1.305160          0.00
     1.305038          1.16
     1.303489          0.88
     1.300122          2.83
     1.297482          0.84
     1.297151          0.89
     1.297040          0.77
     1.296701          0.04
     1.292454          0.02
     1.292197          5.37
     1.290892          0.07
     1.286933          2.63
     1.285277          3.62
     1.283701          8.42
     1.283271          1.23
     1.281860          0.31
     1.280867          0.69
     1.279127          4.02
     1.278769          4.31
     1.275804          0.51
     1.275716          0.82
     1.274076          8.20
     1.269688          6.85
     1.267381         35.37
     1.266477          0.21
     1.265581          0.08
     1.265051          0.00
     1.264942          8.80
     1.264202          2.85
     1.263449          3.95
     1.262198          0.00
     1.262153          0.36
     1.261034          0.01
     1.260867         16.85
     1.260628         36.34
     1.260165          0.22
     1.258243          0.02
     1.257738          0.63
     1.257428         58.64
     1.257101          1.12
     1.256729          2.45
     1.256182          0.33
     1.255978          2.35
     1.255602         10.27
     1.254402          0.38
     1.254168          5.07
     1.254091          0.01
     1.253050         19.46
     1.252870          0.06
     1.252298          1.73
     1.251666          7.74
     1.250931          2.70
     1.250615          0.27
     1.250500          0.01
     1.247830          2.01
     1.245911          0.01
     1.244388          2.48
     1.244174          0.07
     1.242032          0.07
     1.237610          8.60
     1.236911          0.48
##############################################################################
###                            Comments                                    ###
##############################################################################
###   Diffraction pattern calculated by Match!. 
###   I/Ic calculated by Match!. 
###   Space group has been derived from given symmetry operations. 
##############################################################################


