##############################################################################
###               Crystal structure data exported by Match!                ###
##############################################################################
###                           Data published by:                           ###
###                                                                        ###
###               COD (Crystallography Open Database)
##############################################################################
data_1000032
_citation_journal_full    'Journal of Applied Crystallography'
_citation_journal_volume  '23'
_citation_page_first  '246'
_citation_page_last   '252'
_citation_year  '1990'
_citation_title  'Simultaneous structure and size-strain refinement by the Rietveld method'
loop_
_publ_author_name
  'Lutterotti L'
  'Scardi P'
_chemical_formula_sum  'Al2 O3'
_chemical_name_mineral  'Corundum'
_chemical_name_common  'Aluminium oxide - $-alpha'
_symmetry_space_group_name_H-M 'R -3 c'
_space_group_IT_number 167
_space_group_crystal_system 'trigonal (hexagonal axes)'
loop_
_symmetry_equiv_pos_as_xyz
   'x, y, z'
   'x+0.66667, y+0.33333, z+0.33333'
   'x+0.33333, y+0.66667, z+0.66667'
   '-y, x-y, z'
   '-y+0.66667, x-y+0.33333, z+0.33333'
   '-y+0.33333, x-y+0.66667, z+0.66667'
   '-x+y, -x, z'
   '-x+y+0.66667, -x+0.33333, z+0.33333'
   '-x+y+0.33333, -x+0.66667, z+0.66667'
   'x-y, -y, -z+0.5'
   'x-y+0.66667, -y+0.33333, -z+0.83333'
   'x-y+0.33333, -y+0.66667, -z+0.16667'
   '-x, -x+y, -z+0.5'
   '-x+0.66667, -x+y+0.33333, -z+0.83333'
   '-x+0.33333, -x+y+0.66667, -z+0.16667'
   'y, x, -z+0.5'
   'y+0.66667, x+0.33333, -z+0.83333'
   'y+0.33333, x+0.66667, -z+0.16667'
   '-x, -y, -z'
   '-x+0.66667, -y+0.33333, -z+0.33333'
   '-x+0.33333, -y+0.66667, -z+0.66667'
   'y, -x+y, -z'
   'y+0.66667, -x+y+0.33333, -z+0.33333'
   'y+0.33333, -x+y+0.66667, -z+0.66667'
   'x-y, x, -z'
   'x-y+0.66667, x+0.33333, -z+0.33333'
   'x-y+0.33333, x+0.66667, -z+0.66667'
   '-x+y, y, z+0.5'
   '-x+y+0.66667, y+0.33333, z+0.83333'
   '-x+y+0.33333, y+0.66667, z+0.16667'
   'x, x-y, z+0.5'
   'x+0.66667, x-y+0.33333, z+0.83333'
   'x+0.33333, x-y+0.66667, z+0.16667'
   '-y, -x, z+0.5'
   '-y+0.66667, -x+0.33333, z+0.83333'
   '-y+0.33333, -x+0.66667, z+0.16667'
_cell_length_a        4.76050
_cell_length_b        4.76050
_cell_length_c       12.99560
_cell_angle_alpha    90.0000
_cell_angle_beta     90.0000
_cell_angle_gamma   120.0000
_cell_formula_units_Z 6
loop_
_atom_site_label
_atom_site_fract_x
_atom_site_fract_y
_atom_site_fract_z
_atom_site_occupancy
_atom_site_B_iso_or_equiv
al      0.000   0.000   0.352    1.00000    0.147
o      0.307   0.000   0.250    1.00000    0.194
_cell_measurement_wavelength    1.541874
_cell_measurement_radiation   'x-rays'
_exptl_crystal_density_diffrn    3.982000
loop_
_pd_peak_d_spacing
_pd_peak_intensity
     3.481144        605.77
     2.551773        960.58
     2.380250        440.94
     2.165933          4.92
     2.086076        993.04
     1.964855         14.94
     1.740572        496.94
     1.601967       1000.00
     1.547157         25.21
     1.515277         33.42
     1.511358         75.49
     1.404997        396.93
     1.374238        617.35
     1.336459         12.74
     1.275886         15.45
     1.239441        178.64
     1.234550         96.89
     1.193542          7.67
     1.190125         69.33
     1.160381          7.62
     1.147602         58.76
     1.139035          3.08
     1.126132         42.25
     1.124520         30.58
     1.099329         85.33
     1.082967         20.86
     1.078585        101.80
     1.046630          2.31
     1.043038        206.45
     1.017952         27.11
##############################################################################
###                            Comments                                    ###
##############################################################################
###   Diffraction pattern calculated by Match!. 
###   I/Ic calculated by Match!. 
##############################################################################


