##############################################################################
###               Crystal structure data exported by Match!                ###
##############################################################################
###                           Data published by:                           ###
###                                                                        ###
###               COD (Crystallography Open Database)
##############################################################################
data_5910168
_citation_journal_full    'The Structure of Crystals'
_citation_journal_volume  '3'
_citation_page_first  '40'
_citation_page_last   '40'
_citation_year  '1951'
_citation_title  'Page 40 from the Structure of Crystals, vol. 3 by Wyckoff R W G.published by Interscience Publishers, Inc. in 1951'
loop_
_publ_author_name
  'Wyckoff R. W. G.'
_chemical_formula_sum  'Cu O4 S'
_chemical_name_common  'Copper(II) sulfate'
_symmetry_space_group_name_H-M 'P n m a'
_space_group_IT_number 62
_space_group_crystal_system 'orthorhombic'
loop_
_symmetry_equiv_pos_as_xyz
   'x, y, z'
   '-x+0.5, -y, z+0.5'
   'x+0.5, -y+0.5, -z+0.5'
   '-x, y+0.5, -z'
   '-x, -y, -z'
   'x+0.5, y, -z+0.5'
   '-x+0.5, y+0.5, z+0.5'
   'x, -y+0.5, z'
_cell_length_a        8.39560
_cell_length_b        6.69820
_cell_length_c        4.82910
_cell_angle_alpha    90.0000
_cell_angle_beta     90.0000
_cell_angle_gamma    90.0000
loop_
_atom_site_label
_atom_site_fract_x
_atom_site_fract_y
_atom_site_fract_z
_atom_site_occupancy
_atom_site_B_iso_or_equiv
cu      0.000   0.000   0.000    1.00000    1.000
cu      0.000   0.500   0.000    1.00000    1.000
cu      0.500   0.000   0.500    1.00000    1.000
cu      0.500   0.500   0.500    1.00000    1.000
s      0.186   0.250   0.444    1.00000    1.000
s      0.686   0.250   0.056    1.00000    1.000
s      -0.186   -0.250   -0.444    1.00000    1.000
s      -0.686   -0.250   -0.056    1.00000    1.000
o      0.141   0.250   0.755    1.00000    1.000
o      0.641   0.250   -0.255    1.00000    1.000
o      -0.141   -0.250   -0.755    1.00000    1.000
o      -0.641   -0.250   0.255    1.00000    1.000
o      0.375   0.250   0.439    1.00000    1.000
o      0.875   0.250   0.061    1.00000    1.000
o      -0.375   -0.250   -0.439    1.00000    1.000
o      -0.875   -0.250   -0.061    1.00000    1.000
o      0.129   0.069   0.307    1.00000    1.000
o      0.629   0.431   0.193    1.00000    1.000
o      0.129   0.431   0.307    1.00000    1.000
o      0.629   0.069   0.193    1.00000    1.000
o      -0.129   -0.069   -0.307    1.00000    1.000
o      -0.629   -0.431   -0.193    1.00000    1.000
o      -0.129   -0.431   -0.307    1.00000    1.000
o      -0.629   -0.069   -0.193    1.00000    1.000
_cell_measurement_wavelength    1.541874
_cell_measurement_radiation   'x-rays'
_exptl_crystal_density_diffrn    18.746000
loop_
_pd_peak_d_spacing
_pd_peak_intensity
     4.197800        222.69
     4.186026        823.97
     3.917206        231.23
     3.556998        627.72
     3.549826       1000.00
     3.349100        183.91
     3.168144        390.57
     2.863946          8.22
     2.617986        780.79
     2.615123        634.53
     2.421329        765.43
     2.414550         56.34
     2.320490        213.61
     2.301530        337.27
     2.277115          3.79
     2.192640         17.49
     2.098900         12.99
     2.093013        147.94
     2.026605        117.03
     2.002871         61.57
     1.997754         59.29
     1.971246         47.24
     1.970023         34.79
     1.962216        275.21
     1.958603         13.55
     1.924942          3.74
     1.907387          4.47
     1.850060         13.90
     1.828151         18.21
     1.825049          0.19
     1.778499         91.53
     1.774913        349.66
     1.763643         29.67
     1.674550        141.37
     1.668914          0.13
     1.641410          7.05
     1.608911         17.45
     1.604650          7.99
     1.585981         32.30
     1.584072        201.03
     1.580905        156.68
     1.565139         27.58
     1.555364         29.66
     1.554763        139.77
     1.543310         21.73
     1.541550          8.14
     1.538630          0.59
     1.529272         13.74
     1.526990         31.27
     1.502986          0.34
     1.480469          8.31
     1.466520         10.48
     1.457915         68.32
     1.433383        265.08
     1.431973        181.50
     1.429632        179.59
     1.414486          2.78
     1.399267         55.62
     1.395342         19.83
     1.378550         16.61
     1.377269        131.15
     1.376018         81.92
     1.371234         23.86
     1.369699          0.04
     1.366017          3.29
     1.357900          8.19
     1.350250          4.30
     1.343984          5.01
     1.317720          0.25
     1.308993         18.94
     1.307561         41.59
     1.305735         40.97
     1.292980          0.74
     1.291944          7.49
     1.291109         12.14
     1.290890         12.27
     1.290224         34.44
     1.288024         16.04
     1.277309          6.15
     1.276228         27.21
     1.275896         28.13
     1.274781          0.01
     1.263401          0.38
     1.254699          2.36
     1.247299         32.29
     1.246811          6.41
     1.234824          0.23
     1.233866          0.60
     1.210664         29.04
     1.207275         22.44
     1.194983          0.03
     1.193456         12.06
     1.191361         25.43
     1.185666         24.01
     1.183275          6.06
     1.176409          1.07
     1.172983         17.84
     1.172193          0.32
     1.164008         23.60
     1.161997          2.59
     1.160245         16.84
     1.160183          3.92
     1.151497          7.84
     1.151467          0.20
     1.150765         34.78
     1.149549         30.48
     1.146820          2.65
     1.144897          0.05
     1.143221          2.68
     1.138557         22.61
     1.135737         12.16
     1.129233          7.07
     1.128313          8.03
     1.125485         28.28
     1.118524          5.00
     1.116367          1.75
     1.108702         14.83
     1.108524          4.52
     1.099570          6.75
     1.099493         12.10
     1.097797         34.91
     1.096320         39.20
     1.093648          0.30
     1.080575          8.25
     1.078867         31.17
     1.078667         45.83
     1.074153          0.02
     1.073745         32.59
     1.071968         49.41
     1.064298          0.92
     1.064274          0.02
     1.060602          0.01
     1.056048          5.83
     1.053575          7.60
     1.052911          5.72
     1.052375          1.43
     1.049450         15.34
     1.048147          5.16
     1.046507          7.73
     1.043162          4.58
     1.036802          0.66
     1.033963          0.64
     1.032162          6.03
     1.030759         10.78
     1.029699          3.35
     1.029535          0.45
     1.025513          0.00
     1.023408          5.79
     1.022895          2.04
     1.022833          4.10
     1.022040          0.12
     1.015584          6.89
     1.013802          6.82
     1.013701          0.03
     1.013303         15.64
     1.007164          0.27
##############################################################################
###                            Comments                                    ###
##############################################################################
###   Diffraction pattern calculated by Match!. 
###   I/Ic calculated by Match!. 
###   Space group has been derived from given symmetry operations. 
##############################################################################


