##############################################################################
###               Crystal structure data exported by Match!                ###
##############################################################################
###                           Data published by:                           ###
###                                                                        ###
###               COD (Crystallography Open Database)
##############################################################################
data_9014695
_citation_journal_full    'ur Kristallographie''
_citation_journal_volume  '176'
_citation_page_first  '75'
_citation_page_last   '83'
_citation_year  '1986'
_citation_title  'Four monazite type structures: comparison of SrCrO4, SrSeO4,PbCrO4 (crocoite), and PbSeO4'
loop_
_publ_author_name
  'Effenberger H.'
  'Pertlik F.'
_chemical_formula_sum  'Cr O4 Sr'
_chemical_name_common  'Strontium chromate(VI)'
_symmetry_space_group_name_H-M 'P 1 21/n 1'
_space_group_IT_number 14
_space_group_crystal_system 'monoclinic'
loop_
_symmetry_equiv_pos_as_xyz
   'x, y, z'
   '-x+0.5, y+0.5, -z+0.5'
   '-x, -y, -z'
   'x+0.5, -y+0.5, z+0.5'
_cell_length_a        7.06500
_cell_length_b        7.37500
_cell_length_c        6.74100
_cell_angle_alpha    90.0000
_cell_angle_beta    103.0800
_cell_angle_gamma    90.0000
_cell_formula_units_Z 4
loop_
_atom_site_label
_atom_site_fract_x
_atom_site_fract_y
_atom_site_fract_z
_atom_site_occupancy
_atom_site_B_iso_or_equiv
sr      0.228   0.159   0.398    1.00000    0.984
cr      0.198   0.165   0.887    1.00000    0.926
o      0.258   0.005   0.056    1.00000    1.447
o      0.120   0.337   0.002    1.00000    1.552
o      0.026   0.101   0.698    1.00000    1.552
o      0.378   0.218   0.788    1.00000    1.552
_cell_measurement_wavelength    1.541874
_cell_measurement_radiation   'x-rays'
_exptl_crystal_density_diffrn    3.953000
loop_
_pd_peak_d_spacing
_pd_peak_intensity
     5.400010         32.02
     5.031458         77.20
     4.904083         31.05
     4.356939         12.40
     4.290336          0.24
     3.708470         15.50
     3.687500        191.18
     3.440849        625.45
     3.283053         41.01
     3.250285       1000.00
     3.215176          2.00
     3.118172        146.80
     3.071336          1.80
     3.045223          0.34
     2.999295        741.70
     2.984803        277.20
     2.796513         13.50
     2.700005        199.95
     2.616428          0.96
     2.562309         79.74
     2.535433        180.68
     2.515729         59.43
     2.490939         16.68
     2.452042          0.00
     2.444104         25.21
     2.336433         58.57
     2.315053          7.47
     2.302265         86.07
     2.237393          3.48
     2.237101         87.83
     2.229203         51.93
     2.227332         70.91
     2.195446          0.00
     2.190391          9.38
     2.178469          5.30
     2.145168          0.53
     2.140779          2.51
     2.132992         18.16
     2.098250          1.70
     2.059802        343.08
     2.036560         22.46
     2.027402         11.28
     2.000268          7.45
     1.994036          0.64
     1.987738         33.99
     1.973617          6.44
     1.967804          0.01
     1.963695        311.49
     1.961476         10.45
     1.954881         18.61
     1.947780        139.18
     1.912646          2.36
     1.895578          0.01
     1.882134         29.81
     1.854235          4.37
     1.846914         25.94
     1.843750         39.35
     1.837226        160.56
     1.827579        224.21
     1.817751         10.94
     1.805824          5.82
     1.800003         10.73
     1.780938        110.06
     1.776589          0.46
     1.775097          0.67
     1.748673          3.47
     1.744848          4.70
     1.731725          0.12
     1.720425         33.31
     1.716587          2.01
     1.693953          1.33
     1.693563          0.82
     1.689111         65.47
     1.677153         32.30
     1.675441         47.83
     1.663648         30.30
     1.654566          0.05
     1.646479         14.34
     1.642780         10.79
     1.641526         35.66
     1.640225          0.00
     1.634694          2.43
     1.632037         20.72
     1.625143         21.69
     1.618402          0.06
     1.617575          0.70
     1.616316          0.58
     1.607588          2.25
     1.605345          8.81
     1.605013         62.36
     1.602315         17.13
     1.593486         44.23
     1.592077          7.15
     1.583949          0.33
     1.564109          0.00
     1.559086          0.12
     1.549570          5.93
     1.543951          0.53
     1.539628          1.49
     1.535668         12.65
     1.533233          3.50
     1.532665         44.30
     1.530590         14.07
     1.528374          0.82
     1.522611         13.95
     1.499647         10.72
     1.499423          6.33
     1.492401          5.80
     1.489586          0.11
     1.475483         16.51
     1.452313          0.36
     1.451475          3.76
     1.447369          2.97
     1.442244          0.74
     1.439136          0.48
     1.437086         34.64
     1.433774         11.64
     1.430112          8.05
     1.422875          2.52
     1.422799          3.11
     1.414294          8.79
     1.412792          1.47
     1.410104          3.31
     1.409537          0.00
     1.406030         76.98
     1.403959          0.11
     1.402493         67.33
     1.399229         11.51
     1.398257          0.96
     1.394868          5.97
     1.394152         13.74
     1.392161          0.01
     1.390919         28.57
     1.389922         45.08
     1.388374          0.20
     1.387562          7.93
     1.377143          1.75
     1.374706         25.65
     1.366266         40.30
     1.365156          2.27
     1.364044          0.27
     1.362227          0.65
     1.359683          0.21
     1.355689         16.45
     1.352981         15.54
     1.351768          0.12
     1.350002          5.28
     1.347306          0.16
     1.345448         53.65
     1.344132          2.69
     1.343420          0.54
     1.343407          0.09
     1.333349          0.00
     1.328518          9.61
     1.327938         53.43
     1.325371          5.58
     1.319279          1.81
     1.310197          2.85
     1.308214          3.05
     1.305887          5.54
     1.304845          0.24
     1.299830          2.30
     1.297973          9.04
     1.297446         36.27
     1.294438         29.75
     1.293406          3.72
     1.292884          0.32
     1.289732          6.66
     1.289450         14.99
     1.287983          1.33
     1.285884          0.16
     1.284141         60.37
     1.281154         12.10
     1.274999          5.02
     1.270451         13.22
     1.270359          1.03
     1.267716          2.32
     1.265483          0.20
     1.257865          7.98
     1.252851          1.60
     1.252254          0.26
     1.251922          1.15
     1.247251          5.68
     1.245469          5.18
     1.243866         20.17
     1.242756          5.74
     1.240652          1.91
     1.239335          1.47
     1.237113          0.32
     1.236157          0.01
     1.231425          0.42
     1.230975          0.00
     1.229167         25.39
     1.226021         12.55
     1.224920          0.36
     1.223167          0.69
     1.222199          8.20
     1.222052          9.50
     1.217416          1.24
     1.216048          0.66
     1.215410         40.11
     1.210582          1.05
     1.210017          0.87
     1.208180          0.57
     1.208075          1.72
     1.207385          3.22
     1.201466          1.73
     1.201083          0.44
     1.200933         34.15
     1.199275          3.09
     1.198510          3.79
     1.195449          1.67
     1.194223          0.00
     1.192738          7.74
     1.183316          0.48
     1.181629          0.53
     1.181499          0.08
     1.180928          7.52
     1.178876          0.74
     1.178045          2.04
     1.174761          0.04
     1.173257         22.51
     1.170712          3.80
     1.168216         19.17
     1.166329          2.56
     1.165819          1.25
     1.163083          2.06
     1.162203          9.79
     1.161183          0.86
     1.158311          2.89
     1.157527         37.73
     1.155083          0.39
     1.153830          2.44
     1.153269          0.00
     1.151132          6.79
     1.150948         20.70
     1.150308          0.37
     1.146950          2.31
     1.142097          0.05
     1.140882          0.00
     1.137972          0.00
     1.133326         18.27
     1.131828          0.35
     1.130193          2.84
     1.130024          2.83
     1.128579          0.95
     1.125394          0.83
     1.124434          0.44
     1.121978          8.28
     1.121421          0.00
     1.120976          0.07
     1.120273          2.43
     1.119791         12.81
     1.118697         12.74
     1.118550         19.00
     1.116249          0.79
     1.114601          7.35
     1.113666          4.01
     1.113173          0.00
     1.111019          7.55
     1.109880          0.83
     1.109091          0.00
     1.108105          4.48
     1.107919         21.01
     1.106658          0.02
     1.105903          5.23
     1.102928          3.29
     1.097723         10.56
     1.097147          7.15
     1.096141          2.15
     1.095196          0.17
     1.094351          5.58
     1.094300         13.04
     1.092367          1.04
     1.089235          1.67
     1.087817          0.00
     1.087815          1.75
     1.086683          0.27
     1.083428          1.29
     1.082498         10.86
     1.080002          0.12
     1.079380          0.13
     1.077855          0.23
     1.077267          2.94
     1.077168          1.10
     1.076977          9.12
     1.076374          0.57
     1.075742         27.29
     1.072584         11.63
     1.072385         20.49
     1.071725          0.40
     1.070389          5.12
     1.069638          0.08
     1.068605          1.98
     1.066496          0.89
     1.065664          3.30
     1.064283          3.97
     1.063230          0.68
     1.062364          0.34
     1.062200         13.02
     1.061849          6.01
     1.061418          0.71
     1.060753          8.75
     1.059476          0.34
     1.058849          0.30
     1.057038          0.22
     1.056830          1.48
     1.055139          0.07
     1.053748          2.92
     1.051080          0.75
     1.051011          2.62
     1.049125          1.42
     1.048710         15.43
     1.046092          0.12
     1.044271          5.42
     1.043547         17.14
     1.042483          0.04
     1.041556          4.14
     1.041437          0.43
     1.040265          1.58
     1.039391          0.13
     1.036972          6.74
     1.036463          0.01
     1.035589         13.40
     1.034395          6.55
     1.034074          0.34
     1.032221          3.89
     1.029901          4.96
     1.028564          0.01
     1.026744          0.16
     1.025528          0.28
     1.023779          0.16
     1.023172          0.07
     1.020386          0.99
     1.020278          6.85
     1.020103          2.46
     1.019832          5.57
     1.018280          0.01
     1.018115          0.00
     1.015134         14.40
     1.015074          5.52
     1.013701          4.44
     1.012467         14.08
     1.010079          0.02
     1.008682          0.08
     1.007404          2.69
##############################################################################
###                            Comments                                    ###
##############################################################################
###   Synthetic
###   Diffraction pattern calculated by Match!. 
###   I/Ic calculated by Match!. 
##############################################################################


