##############################################################################
###               Crystal structure data exported by Match!                ###
##############################################################################
###                           Data published by:                           ###
###                                                                        ###
###               COD (Crystallography Open Database)
##############################################################################
data_9007166
_citation_journal_full    'Physics and Chemistry of Minerals'
_citation_journal_volume  '30'
_citation_page_first  '167'
_citation_page_last   '176'
_citation_year  '2003'
_citation_title  'Compression mechanisms of coesiteSample: X4P2, P = 4.45 GPa'
loop_
_publ_author_name
  'Angel R. J.'
  'Shaw C. S. J.'
  'Gibbs G. V.'
_chemical_formula_sum  'O2 Si'
_chemical_name_mineral  'Coesite'
_symmetry_space_group_name_H-M 'C 1 2/c 1'
_space_group_IT_number 15
_space_group_crystal_system 'monoclinic'
loop_
_symmetry_equiv_pos_as_xyz
   'x, y, z'
   'x+0.5, y+0.5, z'
   '-x, y, -z+0.5'
   '-x+0.5, y+0.5, -z+0.5'
   '-x, -y, -z'
   '-x+0.5, -y+0.5, -z'
   'x, -y, z+0.5'
   'x+0.5, -y+0.5, z+0.5'
_cell_length_a        7.00350
_cell_length_b       12.24620
_cell_length_c        7.11780
_cell_angle_alpha    90.0000
_cell_angle_beta    120.7080
_cell_angle_gamma    90.0000
loop_
_atom_site_label
_atom_site_fract_x
_atom_site_fract_y
_atom_site_fract_z
_atom_site_occupancy
_atom_site_B_iso_or_equiv
si      0.137   0.110   0.071    1.00000    0.390
si      0.508   0.157   0.544    1.00000    0.420
o      0.000   0.000   0.000    1.00000    0.700
o      0.500   0.110   0.750    1.00000    0.529
o      0.254   0.129   0.929    1.00000    0.700
o      0.318   0.101   0.325    1.00000    0.730
o      0.026   0.213   0.471    1.00000    0.679
_cell_measurement_wavelength    1.541874
_cell_measurement_radiation   'x-rays'
_cell_measurement_pressure       4450000.000000
_exptl_crystal_density_diffrn    3.041000
loop_
_pd_peak_d_spacing
_pd_peak_intensity
     6.123100         66.90
     5.485445          6.41
     5.403589          4.85
     4.328500         30.30
     3.417497         71.25
     3.398575        138.69
     3.378837        332.12
     3.358331        701.02
     3.067688        954.29
     3.061550       1000.00
     3.059875        786.20
     3.039223        821.20
     3.010738        180.74
     2.742723         11.27
     2.738034         61.80
     2.737135         91.79
     2.701794        106.73
     2.682538        105.01
     2.653637        273.29
     2.304624        119.32
     2.285677         69.61
     2.274689         12.74
     2.268743         30.33
     2.262245          2.91
     2.255981         84.70
     2.244830         63.60
     2.176955         27.09
     2.167009         43.37
     2.164250         22.13
     2.146653         47.95
     2.136260          7.49
     2.041033          0.51
     2.021309         23.14
     2.017613          3.59
     2.017189          8.70
     2.005229        112.14
     2.005049         35.94
     2.000684          4.48
     1.992894          0.44
     1.980730         33.89
     1.936188          0.03
     1.935341          0.51
     1.853679          7.32
     1.828482         98.27
     1.828360         14.52
     1.801196        113.52
     1.779443        156.35
     1.763258        121.64
     1.750461          2.45
     1.746106          0.02
     1.708749          0.06
     1.699288          7.93
     1.697956         60.66
     1.697599         35.39
     1.691471          8.92
     1.689418         82.89
     1.688847          8.43
     1.686830         15.53
     1.683038         25.48
     1.682399         15.07
     1.679988         48.68
     1.679166         28.74
     1.677345          1.08
     1.674787          3.78
     1.671999        128.04
     1.670209          1.38
     1.655809          7.76
     1.631528        166.97
     1.614185          6.30
     1.575510          2.22
     1.573389         12.60
     1.570017         40.45
     1.569818          0.95
     1.564161         33.85
     1.559739         43.07
     1.552450         38.30
     1.546571         16.35
     1.538456         46.44
     1.535039          0.02
     1.533844         38.12
     1.530775         47.55
     1.529937         13.07
     1.520569         11.48
     1.519611         21.05
     1.516759         70.65
     1.505369         28.18
     1.487871          0.13
     1.485022         28.59
     1.484305          2.90
     1.481375          4.08
     1.468357          2.02
     1.461838         14.43
     1.442833          0.15
     1.404855         13.22
     1.402560         21.28
     1.400896          1.39
     1.399404          1.01
     1.398256         10.38
     1.392839          6.41
     1.391373         14.11
     1.389774         26.76
     1.388746          1.10
     1.385762         15.44
     1.380434          1.79
     1.379061         16.49
     1.377031          0.56
     1.376220         35.85
     1.371361          6.30
     1.369714          2.48
     1.369017          7.46
     1.368567          2.04
     1.364530          4.77
     1.356315          1.72
     1.350897          0.07
     1.341269          1.08
     1.336273         15.80
     1.332502        132.49
     1.329413         50.84
     1.328726         85.56
     1.328412          1.83
     1.327224         69.39
     1.326818         52.82
     1.325611         40.42
     1.321831         12.63
     1.319810          2.29
     1.318815         31.75
     1.314017         55.02
     1.311744         73.19
     1.311559         43.25
     1.308235          3.90
     1.302938         69.70
     1.294053         11.74
     1.285100         65.35
     1.283124          3.98
     1.279226         23.86
     1.273554         44.00
     1.270961         92.90
     1.270815          7.76
     1.267848          6.58
     1.267533         56.07
     1.266315          3.78
     1.264227          9.54
     1.252317          0.12
     1.229812          0.31
     1.226189          2.82
     1.224699          4.45
     1.224620          6.32
     1.224379         55.97
     1.224191          7.64
     1.222073          0.01
     1.221083         11.96
     1.220961         16.34
     1.214669          5.53
     1.211988          0.98
     1.211495         42.72
     1.208419          0.92
     1.207775          0.03
     1.207498          8.07
     1.205589         42.17
     1.200813          0.47
     1.200207          9.37
     1.198514         17.52
     1.180768         35.49
     1.175873         30.03
     1.175130          3.36
     1.174558          1.60
     1.171342         27.25
     1.171130         28.03
     1.170470         44.88
     1.168904          0.20
     1.168520         33.58
     1.164565          0.47
     1.163280          5.68
     1.161893          0.48
     1.160464         15.23
     1.159096          0.18
     1.158847          0.02
     1.155940          1.56
     1.155076         28.72
     1.152312          4.71
     1.151067         15.13
     1.150931          0.07
     1.149368          0.10
     1.147632          2.20
     1.146341         16.74
     1.144057          0.97
     1.142839          0.27
     1.141762          1.35
     1.139745         12.15
     1.139166          4.43
     1.137345          2.23
     1.136945          0.92
     1.136495          4.73
     1.135370          0.60
     1.134371          4.58
     1.132858          0.89
     1.131123          1.16
     1.129477          0.95
     1.127990          1.26
     1.126279          4.71
     1.122415          2.00
     1.121865         41.36
     1.120499          2.62
     1.119444         10.36
     1.105061         12.88
     1.100337          0.24
     1.099799         18.61
     1.098172          0.13
     1.097089          6.83
     1.095403          2.84
     1.094737          0.20
     1.090856         12.51
     1.090565          2.92
     1.090444          2.20
     1.088478          0.03
     1.087428          1.81
     1.087291         17.28
     1.085896         13.26
     1.083926          6.66
     1.083505          0.54
     1.082125          0.03
     1.081091         14.72
     1.080718         14.25
     1.078795          4.92
     1.077421          0.32
     1.077320          3.16
     1.074613          3.12
     1.073326          0.40
     1.069789          1.19
     1.068130          0.15
     1.067653         23.68
     1.066437          3.54
     1.066029         21.90
     1.064466          0.96
     1.064214         19.98
     1.064030         12.14
     1.063560         21.51
     1.062517          3.46
     1.060696          7.14
     1.060512          6.70
     1.059314          0.39
     1.058573          0.57
     1.057799          0.02
     1.055161          0.59
     1.051551          1.10
     1.051366          2.22
     1.049951          7.28
     1.049680          3.29
     1.045535          1.96
     1.038377         21.79
     1.033829          0.00
     1.029408          6.59
     1.022563          0.05
     1.020634          0.09
     1.020517          0.14
     1.019958          3.44
     1.013074          4.10
     1.011497          0.07
     1.010655          0.16
     1.009524         17.44
     1.009509          6.62
     1.008806          3.54
     1.008595          0.17
     1.007088          0.61
     1.006617          5.63
##############################################################################
###                            Comments                                    ###
##############################################################################
###   Diffraction pattern calculated by Match!. 
###   I/Ic calculated by Match!. 
###   Space group has been derived from given symmetry operations. 
##############################################################################


