##############################################################################
###               Crystal structure data exported by Match!                ###
##############################################################################
###                           Data published by:                           ###
###                                                                        ###
###               COD (Crystallography Open Database)
##############################################################################
data_9009230
_citation_journal_full    'Clays and Clay Minerals'
_citation_journal_volume  '37'
_citation_page_first  '289'
_citation_page_last   '296'
_citation_year  '1989'
_citation_title  'Rietveld refinement of non-hydrogen atomic positions in kaoliniteLocality: Keokuk, Iowa, USANote: clay'
loop_
_publ_author_name
  'Bish D. L.'
  'Von Dreele R. B.'
_chemical_formula_sum  'Al2 H4 O9 Si2'
_chemical_name_mineral  'Kaolinite'
_symmetry_space_group_name_H-M 'C 1'
_space_group_IT_number 1
_space_group_crystal_system 'triclinic'
loop_
_symmetry_equiv_pos_as_xyz
   'x, y, z'
   'x+0.5, y+0.5, z'
_cell_length_a        5.15540
_cell_length_b        8.94480
_cell_length_c        7.40480
_cell_angle_alpha    91.7000
_cell_angle_beta    104.8620
_cell_angle_gamma    89.8220
loop_
_atom_site_label
_atom_site_fract_x
_atom_site_fract_y
_atom_site_fract_z
_atom_site_occupancy
_atom_site_B_iso_or_equiv
al      0.297   0.496   0.472    1.00000    1.000
al      0.793   0.330   0.470    1.00000    1.000
si      0.994   0.339   0.091    1.00000    1.000
si      0.506   0.167   0.091    1.00000    1.000
o      0.050   0.354   0.317    1.00000    1.000
o      0.121   0.660   0.318    1.00000    1.000
o      0.000   0.500   0.000    1.00000    1.000
o      0.208   0.231   0.025    1.00000    1.000
o      0.201   0.766   0.003    1.00000    1.000
o      0.051   0.970   0.322    1.00000    1.000
o      0.965   0.167   0.605    1.00000    1.000
o      0.035   0.477   0.608    1.00000    1.000
o      0.033   0.857   0.609    1.00000    1.000
_cell_measurement_wavelength    1.541874
_cell_measurement_radiation   'x-rays'
_exptl_crystal_density_diffrn    2.599000
loop_
_pd_peak_d_spacing
_pd_peak_intensity
     7.153889       1000.00
     4.470383        172.31
     4.361205        515.63
     4.343953          8.01
     4.180914        493.83
     4.128933        239.18
     3.843003        348.30
     3.741182        146.37
     3.576945        609.36
     3.418459         15.63
     3.373687        192.06
     3.154385         43.21
     3.103579         47.23
     2.834537          6.82
     2.753104         70.25
     2.566152         62.76
     2.562957         71.40
     2.552456         69.37
     2.533172         91.53
     2.518563         43.89
     2.498552         99.14
     2.491440         98.94
     2.486021         23.57
     2.384630         69.58
     2.346021        206.69
     2.338434         18.81
     2.335292        193.36
     2.305969         24.93
     2.292803        248.10
     2.251533         26.66
     2.235192          2.48
     2.231246          0.43
     2.219880          8.19
     2.196798         24.34
     2.185174         20.90
     2.180602          6.56
     2.171977          5.72
     2.151854          2.76
     2.130595         20.55
     2.115568          7.58
     2.090457          2.48
     2.078381          4.42
     2.064467         12.45
     1.997579         80.77
     1.985854         76.44
     1.973499          4.13
     1.953033         27.06
     1.938781         55.68
     1.928770          1.18
     1.921502         26.93
     1.907521          6.11
     1.897406         27.94
     1.870591         25.30
     1.846407         27.13
     1.838413         36.42
     1.835473         21.01
     1.812724          8.73
     1.809492          8.49
     1.792075          0.10
     1.788472         31.85
     1.709230         29.65
     1.690425         17.15
     1.687790          2.93
     1.686844          0.02
     1.686319          9.25
     1.685561          0.80
     1.680574         18.44
     1.680551          5.93
     1.679441          7.05
     1.677888          4.01
     1.669918         76.24
     1.667629         32.60
     1.662534          7.54
     1.660080         77.58
     1.659921         11.24
     1.655653          9.24
     1.653956         18.79
     1.648372         29.88
     1.643669          7.06
     1.634388         10.67
     1.631654          6.64
     1.630709          7.52
     1.620235         72.28
     1.619582         28.53
     1.607018          6.82
     1.606134         10.37
     1.595833          3.02
     1.592927          6.77
     1.586403         39.89
     1.577193          0.79
     1.572957          5.62
     1.560428          4.15
     1.552317          8.87
     1.551789         30.16
     1.545779         26.64
     1.544798          1.43
     1.544610         13.65
     1.536990         31.08
     1.536660          1.42
     1.530456          5.76
     1.514210          6.67
     1.508818          3.00
     1.505455          5.90
     1.491413          3.92
     1.490128         67.94
     1.489866         70.07
     1.486836         68.03
     1.473944          6.20
     1.469393         11.00
     1.467594          8.13
     1.466700          0.17
     1.463472         12.95
     1.458110         12.82
     1.457729         14.56
     1.454420          5.08
     1.453735          9.54
     1.452825          2.28
     1.450195         13.97
     1.447984         11.36
     1.443693         27.44
     1.431732          6.12
     1.430778         12.22
     1.417268         13.50
     1.416106          1.93
     1.406259          8.71
     1.405624          9.57
     1.398595          6.75
     1.397801          2.05
     1.393638         11.92
     1.390360         12.97
     1.389389          6.56
     1.376552         23.90
     1.376311          7.78
     1.374657          1.31
     1.369610         10.06
     1.367300          8.31
     1.364621          2.35
     1.361182          5.43
     1.358323          3.57
     1.357730          6.09
     1.353966          2.29
     1.351834         16.14
     1.351020          1.41
     1.341090         64.37
     1.339904          2.93
     1.331306          0.18
     1.322184          2.15
     1.309934         55.70
     1.305092          0.86
     1.303138         52.02
     1.301389          0.12
     1.291946         18.86
     1.285327         15.74
     1.284935          4.03
     1.284187         19.95
     1.283076          8.66
     1.282098          2.74
     1.281479          9.37
     1.281001          3.52
     1.279756          3.05
     1.276228          8.55
     1.271938          0.36
     1.266586         21.50
     1.265598          5.53
     1.264184          3.90
     1.259281          4.52
     1.257798          5.15
     1.253582          0.06
     1.249276         28.15
     1.247061          4.29
     1.246541          0.72
     1.245720         23.65
     1.243159          4.03
     1.243010          2.73
     1.242683          9.69
     1.240294          5.77
     1.238784          1.51
     1.238763          9.85
     1.238642         10.58
     1.237382          1.61
     1.237182         17.35
     1.235868          2.05
     1.235222          6.03
     1.234453         10.34
     1.234087          2.00
     1.231353          4.91
     1.230143         12.56
     1.227686          6.86
     1.226773          2.91
     1.223621          9.87
     1.221724          7.00
     1.219798          3.81
     1.218759          9.67
     1.216933          3.10
     1.215414          7.15
     1.214142          2.75
     1.213405          3.80
     1.209303          2.66
     1.206784          5.90
     1.204886          3.04
     1.202970          1.37
     1.202270          7.01
     1.201448         11.42
     1.200671          4.55
     1.199357          3.19
     1.198556          1.80
     1.196361          6.82
     1.193926          1.96
     1.192315         10.97
     1.192255          0.13
     1.189023          1.24
     1.186213          1.23
     1.183253          3.47
     1.182410          2.49
     1.177275          4.78
     1.176198          7.82
     1.173010          2.19
     1.172058          7.26
     1.170307          2.86
     1.169217          2.66
     1.168473          4.16
     1.167646          1.38
     1.165987          2.81
     1.162028          2.52
     1.160708          3.51
     1.160169          0.21
     1.158058          2.07
     1.157989          1.08
     1.156825          5.34
     1.152985          5.52
     1.151822          0.26
     1.147226          3.34
     1.146401          1.73
     1.143569          0.74
     1.141246          3.28
     1.141081          1.10
     1.139486          3.55
     1.138859          1.41
     1.137827          0.87
     1.136116          1.90
     1.135855          3.80
     1.130390          2.59
     1.128377          2.06
     1.127860          0.77
     1.125766         18.24
     1.124562          2.17
     1.123770          1.01
     1.122597          0.47
     1.118305          1.86
     1.117596          2.70
     1.115623          2.00
     1.115190          2.34
     1.114111          0.51
     1.113764          2.33
##############################################################################
###                            Comments                                    ###
##############################################################################
###   Diffraction pattern calculated by Match!. 
###   I/Ic calculated by Match!. 
###   Space group has been derived from given symmetry operations. 
##############################################################################


