##############################################################################
###               Crystal structure data exported by Match!                ###
##############################################################################
###                           Data published by:                           ###
###                                                                        ###
###               COD (Crystallography Open Database)
##############################################################################
data_9005033
_citation_journal_full    'European Journal of Mineralogy'
_citation_journal_volume  '2'
_citation_page_first  '63'
_citation_page_last   '77'
_citation_year  '1990'
_citation_title  'An X-ray study of the temperature dependence of the quartz structureSample: at T = 1078 K'
loop_
_publ_author_name
  'Kihara K.'
_chemical_formula_sum  'O2 Si'
_chemical_name_mineral  'Quartz'
_symmetry_space_group_name_H-M 'P 62 2 2'
_space_group_IT_number 180
_space_group_crystal_system 'hexagonal'
loop_
_symmetry_equiv_pos_as_xyz
   'x, y, z'
   'x-y, x, z+0.33333'
   '-y, x-y, z+0.66667'
   '-x, -y, z'
   '-x+y, -x, z+0.33333'
   'y, -x+y, z+0.66667'
   'x-y, -y, -z'
   '-x, -x+y, -z+0.33333'
   'y, x, -z+0.66667'
   '-y, -x, -z+0.66667'
   '-x+y, y, -z'
   'x, x-y, -z+0.33333'
_cell_length_a        4.99650
_cell_length_b        4.99650
_cell_length_c        5.45460
_cell_angle_alpha    90.0000
_cell_angle_beta     90.0000
_cell_angle_gamma   120.0000
loop_
_atom_site_label
_atom_site_fract_x
_atom_site_fract_y
_atom_site_fract_z
_atom_site_occupancy
_atom_site_B_iso_or_equiv
si      0.500   0.000   0.000    1.00000    1.946
o      0.416   0.208   0.167    1.00000    4.699
_cell_measurement_wavelength    1.541874
_cell_measurement_radiation   'x-rays'
_cell_measurement_temperature    1078.000000
_exptl_crystal_density_diffrn    2.538000
loop_
_pd_peak_d_spacing
_pd_peak_intensity
     4.327096        182.84
     3.389957       1000.00
     2.498250         36.88
     2.307250         20.58
     2.271351          2.28
     2.163548         35.16
     2.011121         25.47
     1.842192        143.09
     1.818200          0.41
     1.694978          9.83
     1.676234          4.46
     1.635489          0.71
     1.566584         57.37
     1.470083          2.45
     1.442365          8.20
     1.402622         30.18
     1.394437          9.11
     1.391945         54.17
     1.300595          5.23
     1.275035         14.98
     1.249125         14.97
     1.217606          0.54
     1.215945         14.98
     1.200120          4.07
     1.196947         16.09
     1.172086         23.43
     1.153625          0.69
     1.135676          0.33
     1.129986          0.19
     1.098472          8.64
     1.081774          6.58
     1.061107          0.21
     1.057820          7.18
     1.047351          8.79
     1.029566          7.19
##############################################################################
###                            Comments                                    ###
##############################################################################
###   Diffraction pattern calculated by Match!. 
###   I/Ic calculated by Match!. 
###   Space group has been derived from given symmetry operations. 
##############################################################################


