##############################################################################
###               Crystal structure data exported by Match!                ###
##############################################################################
###                           Data published by:                           ###
###                                                                        ###
###               COD (Crystallography Open Database)
##############################################################################
data_2101054
_citation_journal_full    'Acta Crystallographica Section B'
_citation_journal_volume  '49(6)'
_citation_page_first  '973'
_citation_page_last   '980'
_citation_year  '1993'
_citation_title  'Synchrotron X-ray study of the electron density in \a-Al~2~O~3~'
loop_
_publ_author_name
  'Maslen E. N.'
  'Streltsov V. A.'
  'Streltsova N. R.'
  'Ishizawa N.'
  'Satow Y.'
_chemical_formula_sum  'Al2 O3'
_chemical_name_common  'Alumina'
_symmetry_space_group_name_H-M 'R -3 c'
_space_group_IT_number 167
_space_group_crystal_system 'trigonal (hexagonal axes)'
loop_
_symmetry_equiv_pos_as_xyz
   'x, y, z'
   'x+0.66667, y+0.33333, z+0.33333'
   'x+0.33333, y+0.66667, z+0.66667'
   '-y, x-y, z'
   '-y+0.66667, x-y+0.33333, z+0.33333'
   '-y+0.33333, x-y+0.66667, z+0.66667'
   '-x+y, -x, z'
   '-x+y+0.66667, -x+0.33333, z+0.33333'
   '-x+y+0.33333, -x+0.66667, z+0.66667'
   'x-y, -y, -z+0.5'
   'x-y+0.66667, -y+0.33333, -z+0.83333'
   'x-y+0.33333, -y+0.66667, -z+0.16667'
   '-x, -x+y, -z+0.5'
   '-x+0.66667, -x+y+0.33333, -z+0.83333'
   '-x+0.33333, -x+y+0.66667, -z+0.16667'
   'y, x, -z+0.5'
   'y+0.66667, x+0.33333, -z+0.83333'
   'y+0.33333, x+0.66667, -z+0.16667'
   '-x, -y, -z'
   '-x+0.66667, -y+0.33333, -z+0.33333'
   '-x+0.33333, -y+0.66667, -z+0.66667'
   'y, -x+y, -z'
   'y+0.66667, -x+y+0.33333, -z+0.33333'
   'y+0.33333, -x+y+0.66667, -z+0.66667'
   'x-y, x, -z'
   'x-y+0.66667, x+0.33333, -z+0.33333'
   'x-y+0.33333, x+0.66667, -z+0.66667'
   '-x+y, y, z+0.5'
   '-x+y+0.66667, y+0.33333, z+0.83333'
   '-x+y+0.33333, y+0.66667, z+0.16667'
   'x, x-y, z+0.5'
   'x+0.66667, x-y+0.33333, z+0.83333'
   'x+0.33333, x-y+0.66667, z+0.16667'
   '-y, -x, z+0.5'
   '-y+0.66667, -x+0.33333, z+0.83333'
   '-y+0.33333, -x+0.66667, z+0.16667'
_cell_length_a        4.75400
_cell_length_b        4.75400
_cell_length_c       12.98200
_cell_angle_alpha    90.0000
_cell_angle_beta     90.0000
_cell_angle_gamma   120.0000
_cell_formula_units_Z 6
loop_
_atom_site_label
_atom_site_fract_x
_atom_site_fract_y
_atom_site_fract_z
_atom_site_occupancy
_atom_site_B_iso_or_equiv
al      0.000   0.000   0.352    1.00000    1.000
o      0.694   0.000   0.250    1.00000    1.000
_cell_measurement_wavelength    1.541874
_cell_measurement_radiation   'x-rays'
_exptl_crystal_density_diffrn    3.997000
loop_
_pd_peak_d_spacing
_pd_peak_intensity
     3.476710        652.29
     2.548791        994.58
     2.377000        452.67
     2.163667          5.25
     2.083382       1000.00
     1.962229         14.19
     1.738355        481.07
     1.600059        937.72
     1.545052         24.31
     1.513235         30.15
     1.509712         70.52
     1.403162        355.68
     1.372362        546.11
     1.334747         11.61
     1.274395         13.15
     1.238108        150.26
     1.233152         82.14
     1.192069          6.60
     1.188500         56.54
     1.158903          5.85
     1.146061         47.43
     1.137482          2.54
     1.124605         33.84
     1.123157         24.28
     1.098079         66.00
     1.081833         16.17
     1.077150         77.56
     1.045255          1.80
     1.041691        154.88
     1.016570         20.42
##############################################################################
###                            Comments                                    ###
##############################################################################
###   Diffraction pattern calculated by Match!. 
###   I/Ic calculated by Match!. 
##############################################################################


