##############################################################################
###               Crystal structure data exported by Match!                ###
##############################################################################

data_2202292
_citation_journal_full    'Acta Crystallographica Section E'
_citation_journal_volume  '59(7)'
_citation_page_first  'i105'
_citation_page_last   'i106'
_citation_year  '2003'
_citation_title  'Hydronium pentaaquacopper(II) triperchlorate'
loop_
_publ_author_name
  'Bramsen Fabienne'
  'Bond Andrew D.'
  'McKenzie Christine J.'
_chemical_formula_sum  'Cl3 Cu H13 O18'
_chemical_name_common  'Hydronium pentaaquacopper(II) triperchlorate'
_symmetry_space_group_name_H-M 'P 32 2 1'
_space_group_IT_number 154
_space_group_crystal_system 'trigonal (hexagonal axes)'
loop_
_symmetry_equiv_pos_as_xyz
   'x, y, z'
   '-y, x-y, z+0.66667'
   '-x+y, -x, z+0.33333'
   'x-y, -y, -z+0.33333'
   '-x, -x+y, -z+0.66667'
   'y, x, -z'
_cell_length_a       10.16590
_cell_length_b       10.16590
_cell_length_c       13.16010
_cell_angle_alpha    90.0000
_cell_angle_beta     90.0000
_cell_angle_gamma   120.0000
_cell_formula_units_Z 3
loop_
_atom_site_label
_atom_site_fract_x
_atom_site_fract_y
_atom_site_fract_z
_atom_site_occupancy
_atom_site_B_iso_or_equiv
cu      0.703   0.000   0.167    1.00000    1.831
cl      0.179   0.548   0.145    1.00000    2.321
cl      0.084   0.000   0.167    1.00000    2.589
o      0.801   0.187   0.080    1.00000    4.311
h      0.751   0.185   0.025    1.00000    5.211
h      0.900   0.238   0.067    1.00000    5.211
o      0.777   0.124   0.291    1.00000    8.606
h      0.848   0.220   0.281    1.00000    13.106
h      0.740   0.112   0.353    1.00000    13.106
o      0.475   0.000   0.167    1.00000    8.211
h      0.467   0.081   0.173    1.00000    9.869
o      0.066   0.454   0.220    1.00000    3.537
o      0.192   0.694   0.146    1.00000    5.432
o      0.126   0.480   0.046    1.00000    5.700
o      0.318   0.557   0.164    1.00000    6.158
o      0.073   0.133   0.177    1.00000    9.316
o      0.173   0.018   0.080    1.00000    3.703
o      0.328   0.328   0.000    1.00000    3.474
_cell_measurement_wavelength    1.541874
_cell_measurement_radiation   'x-rays'
_cell_measurement_temperature    180.000000
_exptl_crystal_density_diffrn    1.992000
_exptl_crystal_colour            'blue'
loop_
_pd_peak_d_spacing
_pd_peak_intensity
     8.803928         33.94
     7.317467         62.56
     5.270612         69.39
     5.082950         70.41
     4.741564         91.47
     4.401964         10.62
     4.386700        472.83
     4.174615       1000.00
     4.022545         28.71
     3.926303         23.91
     3.658733        686.73
     3.327572         53.21
     3.320964        133.15
     3.226042        182.08
     3.107248         48.18
     3.081862         14.13
     2.969462        155.02
     2.934643          3.73
     2.864290         17.16
     2.761945         36.59
     2.680170         48.24
     2.651126         19.96
     2.635306         56.31
     2.541475        104.10
     2.521739          0.32
     2.495368          3.57
     2.441770         57.73
     2.439156         12.79
     2.400795         69.28
     2.370782          1.23
     2.339561         81.72
     2.337261         18.85
     2.289232         31.53
     2.259009         35.09
     2.200982          0.50
     2.199067         30.04
     2.193350         31.21
     2.190013          1.29
     2.170831         34.97
     2.133517         30.81
     2.128295          2.98
     2.087307         31.63
     2.064321         47.63
     2.019760         11.54
     2.013857         36.71
     2.011273         16.32
     1.996384         11.86
     1.967247         12.62
     1.963151          5.83
     1.960757         49.70
     1.959403         21.13
     1.930845         20.52
     1.921175         16.76
     1.901024         12.63
     1.844177         12.59
     1.838562          4.79
     1.834634         18.54
     1.831311          8.84
     1.829367          9.79
     1.828266          2.80
     1.790076         23.04
     1.763270          5.14
     1.760786          0.06
     1.759804         22.38
     1.756871         19.18
     1.745234          4.42
     1.728935         11.12
     1.721282         24.00
     1.700939          7.87
     1.694317          0.36
     1.688431          3.08
     1.680447         16.11
     1.663786          1.90
     1.660482         12.93
     1.659032          9.02
     1.650647         14.00
     1.640795         23.35
     1.636836          5.72
     1.634063          1.07
     1.631713         13.54
     1.617027          2.89
     1.613021         15.77
     1.602342          7.76
     1.583031          0.76
     1.581232         10.79
     1.580521          5.30
     1.569940         13.74
     1.565090          0.96
     1.555652          0.99
     1.553624          7.92
     1.552436         12.56
     1.551764          6.91
     1.540931         14.67
     1.537463         15.81
     1.511427          4.30
     1.506306          6.68
     1.489634          7.85
     1.487543         19.01
     1.485770          5.86
     1.484731          4.60
     1.474657         17.49
     1.467321          4.63
     1.463493          2.70
     1.462233          5.73
     1.458285          1.95
     1.447357          4.56
     1.445180         14.40
     1.442473          6.09
     1.438682          2.79
     1.434947          6.09
     1.432145          0.43
     1.429511          1.20
     1.425176         13.20
     1.424655          5.72
     1.413564          4.51
     1.409757          2.97
     1.406361          4.24
     1.405243          3.35
     1.401737          3.00
     1.391538          0.89
     1.387677          0.05
     1.380972          0.28
     1.378474          3.99
     1.376125          5.51
     1.374475          3.13
     1.373076          2.66
     1.364290          5.25
     1.355436         13.99
     1.343687          5.50
     1.342586          1.67
     1.342151          3.31
     1.340848          1.88
     1.340085          6.17
     1.338686          1.16
     1.335654          2.12
     1.325563          1.62
     1.324825          2.06
     1.317653          3.16
     1.315483          5.57
     1.308768          1.55
     1.301549          4.11
     1.295807          0.53
     1.285148          4.39
     1.283804          4.31
     1.282664          9.29
     1.281616          0.19
     1.275493          2.82
     1.274003          0.50
     1.270738          0.64
     1.268249          1.57
     1.267428          2.93
     1.264855          1.27
     1.260869          3.99
     1.258608          3.90
     1.257704          7.35
     1.254495          2.76
     1.251999         11.66
     1.249536          1.67
     1.247684          0.48
     1.245941          1.13
     1.243068          3.79
     1.242722          2.89
     1.235340          8.49
     1.223780          5.57
     1.220885          1.10
     1.220558          0.00
     1.219578          0.60
     1.217950          1.97
     1.215665          0.19
     1.210116          3.28
     1.208994         11.76
     1.208042          1.28
     1.202046          2.20
     1.200798          0.46
     1.200397          1.52
     1.195976          2.19
     1.185919          4.27
     1.185477          0.44
     1.185391          1.52
     1.184422          3.46
     1.180245          2.06
     1.176182          3.37
     1.174790          9.13
     1.169780          3.41
     1.168630          0.93
     1.166109          0.50
     1.164550          2.59
     1.163550          2.46
     1.161558          5.33
     1.158469          2.30
     1.156715          2.24
     1.154494          1.84
     1.148217          6.76
     1.146858          1.36
     1.145092          2.49
     1.144616          0.31
     1.144347          0.22
     1.139981          4.09
     1.134800          3.71
     1.129505          1.20
     1.127879          0.13
     1.127227          0.90
     1.126970          0.84
     1.125819          2.72
     1.124916          0.38
     1.123115          0.62
     1.111042          0.32
     1.109191          0.19
     1.107849          2.36
     1.107534          0.67
     1.106988          0.23
     1.105272          1.29
     1.102610          3.06
     1.100491          0.18
     1.099533          0.03
     1.099112          5.21
     1.098340          0.44
     1.096675          0.89
     1.096663          0.40
     1.095006          0.14
     1.093760          1.53
     1.092585          2.53
     1.091759          0.67
     1.091057          8.67
     1.088264          1.91
     1.086634          1.62
     1.085712          1.21
     1.085415          1.33
     1.082437          0.07
     1.075571          1.42
     1.075347          0.27
     1.074348          0.60
     1.073562          2.12
     1.072008          1.46
     1.071997          0.85
     1.070449          2.48
     1.067414          0.44
     1.066759          3.15
     1.066374          0.79
     1.066156          5.47
     1.064148          0.12
     1.061484          1.29
     1.054122          2.06
     1.052800          0.83
     1.051125          0.33
     1.051065          0.77
     1.045352          3.51
     1.044629          2.31
     1.043654          0.33
     1.041567          0.52
     1.040137          1.06
     1.039328          1.29
     1.036197          0.53
     1.035749          0.40
     1.032160          1.19
     1.030422          1.39
     1.029635          0.57
     1.029346          0.58
     1.028655          0.82
     1.027287          1.48
     1.027278          0.68
     1.023923          0.12
     1.022326          1.08
     1.022134          0.97
     1.018015          0.20
     1.016590          0.28
     1.015557          1.00
     1.015314          1.96
     1.014893          1.87
     1.013570          1.62
     1.011516          0.93
     1.009880          0.45
     1.006928          1.03
     1.006919          0.72
##############################################################################
###                            Comments                                    ###
##############################################################################
###   Diffraction pattern calculated by Match!. 
###   I/Ic calculated by Match!. 
###   Space group has been derived from given symmetry operations. 
##############################################################################


