##############################################################################
###               Crystal structure data exported by Match!                ###
##############################################################################
###                           Data published by:                           ###
###                                                                        ###
###               COD (Crystallography Open Database)
##############################################################################
data_9004092
_citation_journal_full    'The Canadian Mineralogist'
_citation_journal_volume  '13'
_citation_page_first  '181'
_citation_page_last   '187'
_citation_year  '1975'
_citation_title  'Anhydrous sulphates. I: Refinement of the crystal structure of celestitewith an appendix on the structure of thenardite'
loop_
_publ_author_name
  'Hawthorne F. C.'
  'Ferguson R. B.'
_chemical_formula_sum  'Na2 O4 S'
_chemical_name_mineral  'Thenardite'
_symmetry_space_group_name_H-M 'F d d d'
_space_group_IT_number 70
_space_group_crystal_system 'orthorhombic'
loop_
_symmetry_equiv_pos_as_xyz
   'x, y, z'
   'x+0.5, y+0.5, z'
   'x+0.5, y, z+0.5'
   'x, y+0.5, z+0.5'
   '-x+0.25, -y+0.25, z'
   '-x+0.75, -y+0.75, z'
   '-x+0.75, -y+0.25, z+0.5'
   '-x+0.25, -y+0.75, z+0.5'
   'x, -y+0.25, -z+0.25'
   'x+0.5, -y+0.75, -z+0.25'
   'x+0.5, -y+0.25, -z+0.75'
   'x, -y+0.75, -z+0.75'
   '-x+0.25, y, -z+0.25'
   '-x+0.75, y+0.5, -z+0.25'
   '-x+0.75, y, -z+0.75'
   '-x+0.25, y+0.5, -z+0.75'
   '-x, -y, -z'
   '-x+0.5, -y+0.5, -z'
   '-x+0.5, -y, -z+0.5'
   '-x, -y+0.5, -z+0.5'
   'x+0.25, y+0.25, -z'
   'x+0.75, y+0.75, -z'
   'x+0.75, y+0.25, -z+0.5'
   'x+0.25, y+0.75, -z+0.5'
   '-x, y+0.25, z+0.25'
   '-x+0.5, y+0.75, z+0.25'
   '-x+0.5, y+0.25, z+0.75'
   '-x, y+0.75, z+0.75'
   'x+0.25, -y, z+0.25'
   'x+0.75, -y+0.5, z+0.25'
   'x+0.75, -y, z+0.75'
   'x+0.25, -y+0.5, z+0.75'
_cell_length_a        9.82900
_cell_length_b       12.30200
_cell_length_c        5.86800
_cell_angle_alpha    90.0000
_cell_angle_beta     90.0000
_cell_angle_gamma    90.0000
loop_
_atom_site_label
_atom_site_fract_x
_atom_site_fract_y
_atom_site_fract_z
_atom_site_occupancy
_atom_site_B_iso_or_equiv
na      0.442   0.125   0.125    1.00000    1.512
s      0.125   0.125   0.125    1.00000    0.847
o      0.214   0.057   0.979    1.00000    1.433
_cell_measurement_wavelength    1.541874
_cell_measurement_radiation   'x-rays'
_exptl_crystal_density_diffrn    2.659000
loop_
_pd_peak_d_spacing
_pd_peak_intensity
     4.662514        574.77
     3.839497        133.90
     3.180433        423.16
     3.075500        374.90
     2.786304       1000.00
     2.648165        446.95
     2.519203          3.45
     2.457250          5.07
     2.346168         52.19
     2.331257        211.22
     2.210873         35.69
     1.948859          0.12
     1.919749         32.42
     1.895475         17.28
     1.892256         13.10
     1.865359        393.26
     1.842951         55.87
     1.801254         55.10
     1.737636          2.42
     1.696903          0.14
     1.680631        155.98
     1.664033         95.66
     1.659380          2.21
     1.606429         53.81
     1.590216         20.59
     1.582988         17.99
     1.554171        130.85
     1.537750          4.78
     1.512867         25.47
     1.497422         62.54
     1.485755          0.08
     1.467000          5.89
     1.430322         66.20
     1.393152          1.00
     1.387207          8.39
     1.387118         27.56
     1.377829         11.67
     1.370378          1.28
     1.357254          1.03
     1.324082         48.81
     1.319204          0.64
     1.313498          0.03
     1.312543          1.33
     1.303540         22.44
     1.296926         58.66
     1.295862         17.61
     1.295636         25.09
     1.279832         71.80
     1.278701          4.09
     1.278493          5.57
     1.259601         17.47
     1.233993          2.06
     1.233326         14.90
     1.228625          0.92
     1.214189         26.36
     1.207944          1.61
     1.194009          4.94
     1.193379          0.03
     1.191259          0.79
     1.173084          0.22
     1.165628          6.30
     1.160129          2.24
     1.159390          3.90
     1.140951          0.05
     1.135792         22.06
     1.134509         24.95
     1.120939          0.10
     1.114515          0.04
     1.113211          5.67
     1.105436          8.31
     1.102276          2.66
     1.100427         10.75
     1.098940          5.75
     1.091791          0.00
     1.088550          4.63
     1.078318         14.25
     1.075996         53.74
     1.073250          0.56
     1.069608         19.78
     1.066812         40.37
     1.063378          9.91
     1.061456         37.67
     1.060144         19.64
     1.053168          5.20
     1.047311         18.95
     1.041594         32.78
     1.038662          2.57
     1.037532          0.14
     1.034860          4.25
     1.030026          4.77
     1.029767          0.10
     1.025167         11.43
     1.007898          3.61
##############################################################################
###                            Comments                                    ###
##############################################################################
###   Diffraction pattern calculated by Match!. 
###   I/Ic calculated by Match!. 
###   Space group has been derived from given symmetry operations. 
##############################################################################


