##############################################################################
###               Crystal structure data exported by Match!                ###
##############################################################################
###                           Data published by:                           ###
###                                                                        ###
###               COD (Crystallography Open Database)
##############################################################################
data_1522026
_citation_journal_full    'Journal of Solid State Chemistry'
_citation_journal_volume  '147'
_citation_page_first  '410'
_citation_page_last   '420'
_citation_year  '1999'
_citation_title  'In situ structural and electrochemical study of Ni1-x Cox O2 metastable oxides prepared by soft chemistry'
loop_
_publ_author_name
  'Tarascon J.M.'
  'Seguin L.'
  'Vaughan G.'
  'Anne M.'
  'Chabre Y.'
  'Strobel P.'
  'Amatucci G.'
_chemical_formula_sum  'Co O1.92'
_chemical_name_common  'Co O1.92'
_symmetry_space_group_name_H-M 'P -3 m 1'
_space_group_IT_number 164
_space_group_crystal_system 'trigonal (hexagonal axes)'
loop_
_symmetry_equiv_pos_as_xyz
   'x, y, z'
   '-y, x-y, z'
   '-x+y, -x, z'
   'x-y, -y, -z'
   '-x, -x+y, -z'
   'y, x, -z'
   '-x, -y, -z'
   'y, -x+y, -z'
   'x-y, x, -z'
   '-x+y, y, z'
   'x, x-y, z'
   '-y, -x, z'
_cell_length_a        2.80480
_cell_length_b        2.80480
_cell_length_c        4.25090
_cell_angle_alpha    90.0000
_cell_angle_beta     90.0000
_cell_angle_gamma   120.0000
_cell_formula_units_Z 1
loop_
_atom_site_label
_atom_site_fract_x
_atom_site_fract_y
_atom_site_fract_z
_atom_site_occupancy
_atom_site_B_iso_or_equiv
o      0.333   0.667   0.200    0.95990    1.000
co      0.000   0.000   0.000    1.00000    1.000
_cell_measurement_wavelength    1.541874
_cell_measurement_radiation   'x-rays'
_exptl_crystal_density_diffrn    5.139000
loop_
_pd_peak_d_spacing
_pd_peak_intensity
     4.250900       1000.00
     2.429028        255.30
     2.125450         36.38
     2.108999        587.75
     1.599548        298.03
     1.416967          9.30
     1.402400        120.18
     1.331796        122.32
     1.223938         93.24
     1.214514         21.24
     1.170557         26.76
     1.167786         54.90
     1.062725          8.16
     1.054500         52.20
##############################################################################
###                            Comments                                    ###
##############################################################################
###   Diffraction pattern calculated by Match!. 
###   I/Ic calculated by Match!. 
##############################################################################


