##############################################################################
###               Crystal structure data exported by Match!                ###
##############################################################################
###                           Data published by:                           ###
###                                                                        ###
###               COD (Crystallography Open Database)
##############################################################################
data_9006296
_citation_journal_full    'Physics and Chemistry of Minerals'
_citation_journal_volume  '21'
_citation_page_first  '269'
_citation_page_last   '284'
_citation_year  '1994'
_citation_title  'Framework silica structures generated using simulated annealingwith a potential energy function based on an H6Si2O7 moleculeSample: 13'
loop_
_publ_author_name
  'Boisen M. B.'
  'Gibbs G. V.'
  'Bukowinski M. S. T.'
_chemical_formula_sum  'O2 Si'
_chemical_name_common  'Silica'
_symmetry_space_group_name_H-M 'C 1 2 1'
_space_group_IT_number 5
_space_group_crystal_system 'monoclinic'
loop_
_symmetry_equiv_pos_as_xyz
   'x, y, z'
   'x+0.5, y+0.5, z'
   '-x, y, -z'
   '-x+0.5, y+0.5, -z'
_cell_length_a        6.62110
_cell_length_b        7.99630
_cell_length_c        5.41150
_cell_angle_alpha    90.0000
_cell_angle_beta    100.2277
_cell_angle_gamma    90.0000
loop_
_atom_site_label
_atom_site_fract_x
_atom_site_fract_y
_atom_site_fract_z
_atom_site_occupancy
_atom_site_B_iso_or_equiv
si      0.191   0.500   0.284    1.00000    1.000
si      0.244   0.126   0.206    1.00000    1.000
o      0.317   0.510   0.572    1.00000    1.000
o      0.133   0.306   0.226    1.00000    1.000
o      0.329   0.553   0.077    1.00000    1.000
o      0.006   0.629   0.745    1.00000    1.000
_cell_measurement_wavelength    1.541874
_cell_measurement_radiation   'x-rays'
_exptl_crystal_density_diffrn    2.831000
loop_
_pd_peak_d_spacing
_pd_peak_intensity
     5.325511          6.46
     5.051226        105.29
     3.998150       1000.00
     3.946116        555.46
     3.436318        256.25
     3.257945        395.30
     3.197362         73.36
     3.028841        115.56
     2.662755        280.88
     2.582499         89.13
     2.525613        214.92
     2.501850        117.60
     2.467005         60.06
     2.414283         86.39
     2.298188        107.87
     2.268535          1.26
     2.232170         95.22
     2.216231         43.83
     2.183208         88.90
     2.169312          0.10
     2.096019         75.38
     2.075344         28.26
     1.999075         29.12
     1.973058         22.96
     1.902821         37.49
     1.873569         24.00
     1.871560         28.67
     1.845594          2.03
     1.804059         80.13
     1.775170          1.97
     1.751921         16.44
     1.751887         36.08
     1.718159         49.13
     1.703885         15.03
     1.689955          5.27
     1.683742         14.23
     1.672968         62.05
     1.668437         52.63
     1.641380         17.39
     1.628972          7.61
     1.622440         16.67
     1.606997         19.36
     1.598681         10.14
     1.580799          4.84
     1.556613         19.16
     1.553162          6.95
     1.545433         36.32
     1.524877         21.42
     1.520800         18.09
     1.518405         17.07
     1.514420          0.03
     1.508566         43.96
     1.508301         68.33
     1.499826          7.33
     1.489152         16.19
     1.486012          7.76
     1.485688         13.52
     1.474366         51.76
     1.454089         14.15
     1.416228         30.25
     1.397070         30.61
     1.392646         10.42
     1.378270          5.52
     1.367031          9.81
     1.366519          6.01
     1.342098         30.64
     1.333439         85.23
     1.332717         20.04
     1.331378         13.64
     1.327367         14.18
     1.322928          1.49
     1.317563         10.72
     1.317049          3.50
     1.315372          3.97
     1.303477         18.35
     1.292849          4.22
     1.291249         18.52
     1.290588         24.87
     1.287815         13.25
     1.286209          2.23
     1.282975         10.12
     1.268561         12.18
     1.263183          2.56
     1.262807         20.93
     1.255959          4.73
     1.252880          1.89
     1.250925          0.50
     1.246913         37.71
     1.245839         17.99
     1.233502          6.94
     1.228756         37.72
     1.222673          7.24
     1.222638         22.62
     1.219852         16.97
     1.210365         15.60
     1.207141         32.15
     1.206022         14.20
     1.203072          7.81
     1.194227         21.95
     1.192438          3.03
     1.191778         31.13
     1.184314          5.36
     1.183719         13.19
     1.175914          6.09
     1.170741          1.94
     1.162289          0.00
     1.149094          7.91
     1.145439         20.05
     1.145138         21.83
     1.140875          8.50
     1.140865         13.11
     1.140052          5.66
     1.134268          1.69
     1.125168          3.27
     1.122192          4.30
     1.116085          1.51
     1.114274         24.19
     1.108116          0.36
     1.107757          0.90
     1.107007          5.72
     1.106343          5.64
     1.103230          7.86
     1.103121          0.20
     1.099813          1.64
     1.098836          1.57
     1.094102          2.14
     1.091604          4.09
     1.091205          9.89
     1.086026          1.90
     1.085982          1.58
     1.084656          0.44
     1.074491          0.26
     1.072412          1.06
     1.070045          0.07
     1.066273          7.78
     1.065787          4.01
     1.065102          0.17
     1.063388          4.62
     1.057969          1.58
     1.048021         10.06
     1.048010          6.12
     1.046465          3.81
     1.045657          5.89
     1.037672          4.20
     1.034619          5.96
     1.033666          9.22
     1.032653          1.74
     1.031490          5.92
     1.029208          6.20
     1.028916          1.89
     1.025227          0.79
     1.022967          2.12
     1.018549          1.36
     1.018528          5.82
     1.014378          1.60
     1.013797          8.93
     1.011023          0.80
     1.010245          1.66
     1.009614          1.29
     1.008676          1.75
##############################################################################
###                            Comments                                    ###
##############################################################################
###   Diffraction pattern calculated by Match!. 
###   I/Ic calculated by Match!. 
###   Space group has been derived from given symmetry operations. 
##############################################################################


