##############################################################################
###               Crystal structure data exported by Match!                ###
##############################################################################
###                           Data published by:                           ###
###                                                                        ###
###               COD (Crystallography Open Database)
##############################################################################
data_1514117
_citation_journal_full    'Australian Journal of Chemistry'
_citation_journal_volume  '46'
_citation_page_first  '939'
_citation_page_last   '944'
_citation_year  '1993'
_citation_title  'Powder neutron diffraction study of pyrolusite, beta-Mn O2'
loop_
_publ_author_name
  'Bolzan A. A.'
  'Fong C.'
  'Kennedy B. J.'
  'Howard C. J.'
_chemical_formula_sum  'Mn O2'
_chemical_name_mineral  'Pyrolusite'
_chemical_name_common  'Manganese(IV) Oxide - Beta'
_symmetry_space_group_name_H-M 'P 42/m n m'
_space_group_IT_number 136
_space_group_crystal_system 'tetragonal'
loop_
_symmetry_equiv_pos_as_xyz
   'x, y, z'
   '-y+0.5, x+0.5, z+0.5'
   '-x, -y, z'
   'y+0.5, -x+0.5, z+0.5'
   'x+0.5, -y+0.5, -z+0.5'
   '-x+0.5, y+0.5, -z+0.5'
   'y, x, -z'
   '-y, -x, -z'
   '-x, -y, -z'
   'y+0.5, -x+0.5, -z+0.5'
   'x, y, -z'
   '-y+0.5, x+0.5, -z+0.5'
   '-x+0.5, y+0.5, z+0.5'
   'x+0.5, -y+0.5, z+0.5'
   '-y, -x, z'
   'y, x, z'
_cell_length_a        4.40410
_cell_length_b        4.40410
_cell_length_c        2.87650
_cell_angle_alpha    90.0000
_cell_angle_beta     90.0000
_cell_angle_gamma    90.0000
_cell_formula_units_Z 2
loop_
_atom_site_label
_atom_site_fract_x
_atom_site_fract_y
_atom_site_fract_z
_atom_site_occupancy
_atom_site_B_iso_or_equiv
mn      0.000   0.000   0.000    1.00000    0.239
o      0.305   0.305   0.000    1.00000    0.484
_cell_measurement_wavelength    1.541874
_cell_measurement_radiation   'x-rays'
_exptl_crystal_density_diffrn    5.175000
loop_
_pd_peak_d_spacing
_pd_peak_intensity
     3.114169       1000.00
     2.408320        537.26
     2.202050         99.51
     2.113025        133.23
     1.969573         45.32
     1.625123        556.96
     1.557084        155.25
     1.438250         74.11
     1.392699         90.24
     1.369335          3.89
     1.307589        181.68
     1.305722        103.61
     1.253506          7.47
     1.221478          1.50
     1.204160         30.34
     1.161526          8.01
     1.124309         56.59
     1.101025         30.09
     1.068151          6.93
     1.056513         71.30
     1.038056         37.22
##############################################################################
###                            Comments                                    ###
##############################################################################
###   Diffraction pattern calculated by Match!. 
###   I/Ic calculated by Match!. 
###   Space group has been derived from given symmetry operations. 
##############################################################################


