##############################################################################
###               Crystal structure data exported by Match!                ###
##############################################################################

data_9014023
_citation_journal_full    'Mineralogical Magazine'
_citation_journal_volume  '66'
_citation_page_first  '301'
_citation_page_last   '311'
_citation_year  '2002'
_citation_title  'Description and crystal structure of bobkingite, (Cu2+)5Cl2(OH)8(H2O)2,a new mineral from New Cliffe Hill Quarry, Stanton-under-Bardon, Leicestershire, UK'
loop_
_publ_author_name
  'Hawthorne F. C.'
  'Cooper M. A.'
  'Grice J. D.'
  'Roberts A. C.'
  'Hubbard N.'
_chemical_formula_sum  'Cl2 Cu5 H12 O10'
_chemical_name_mineral  'Bobkingite'
_symmetry_space_group_name_H-M 'C 1 2/m 1'
_space_group_IT_number 12
_space_group_crystal_system 'monoclinic'
loop_
_symmetry_equiv_pos_as_xyz
   'x, y, z'
   'x+0.5, y+0.5, z'
   '-x, y, -z'
   '-x+0.5, y+0.5, -z'
   '-x, -y, -z'
   '-x+0.5, -y+0.5, -z'
   'x, -y, z'
   'x+0.5, -y+0.5, z'
_cell_length_a       10.31130
_cell_length_b        6.76060
_cell_length_c        8.83860
_cell_angle_alpha    90.0000
_cell_angle_beta    111.4680
_cell_angle_gamma    90.0000
loop_
_atom_site_label
_atom_site_fract_x
_atom_site_fract_y
_atom_site_fract_z
_atom_site_occupancy
_atom_site_B_iso_or_equiv
cu      0.500   0.500   0.000    1.00000    0.789
cu      0.467   0.500   0.324    1.00000    1.065
cu      0.250   0.250   0.000    1.00000    0.915
cl      0.183   0.500   0.213    1.00000    1.286
o      0.447   0.310   0.146    1.00000    1.097
o      0.266   0.500   -0.103    1.00000    1.405
o      0.500   0.313   0.500    1.00000    1.768
o      0.193   0.500   0.567    1.00000    3.268
h      0.512   0.199   0.170    1.00000    2.368
h      0.254   0.500   -0.219    1.00000    2.368
h      0.437   0.199   0.470    0.50000    2.368
_cell_measurement_wavelength    1.541874
_cell_measurement_radiation   'x-rays'
_exptl_crystal_density_diffrn    3.248000
loop_
_pd_peak_d_spacing
_pd_peak_intensity
     8.225397        862.02
     5.526716       1000.00
     5.113375         39.72
     5.020565        312.81
     4.797962         17.44
     4.196167         80.18
     4.112698         65.69
     3.908305         14.27
     3.693243          1.00
     3.609211         50.75
     3.380300         63.57
     3.126576         90.52
     3.063134         58.70
     3.009541          1.94
     2.891353        414.00
     2.876914          5.19
     2.850186          0.00
     2.803978        108.73
     2.763358        106.21
     2.741799         60.12
     2.692475        354.14
     2.675907         48.06
     2.611420        142.54
     2.569643          2.56
     2.556688        225.37
     2.510282         34.93
     2.482840         26.82
     2.467192         40.70
     2.431226         11.34
     2.398981        205.97
     2.272825         18.99
     2.261658        105.44
     2.204667         30.95
     2.193849         18.95
     2.190863        356.40
     2.165341          1.63
     2.129395          9.62
     2.105225        122.34
     2.098083          1.73
     2.076917          4.18
     2.075669          5.12
     2.075550          0.83
     2.065564          7.65
     2.056349         21.48
     2.045673         65.56
     2.021038          0.01
     2.015341          7.15
     2.006648          0.50
     1.962055         54.94
     1.956370          0.38
     1.954446          1.22
     1.954152         11.12
     1.884409          0.63
     1.879725         26.61
     1.871726          1.07
     1.865667         36.89
     1.846621         10.68
     1.846235          7.51
     1.842239         49.23
     1.831454          1.75
     1.806810          0.04
     1.804606         25.39
     1.787497        156.57
     1.786998          1.40
     1.768815        207.30
     1.767175          9.81
     1.756813          5.53
     1.724897         22.70
     1.721958          2.93
     1.718030          0.01
     1.704458         23.35
     1.704014          7.14
     1.691796         41.00
     1.690247         12.54
     1.690150         91.30
     1.690077         28.23
     1.680460          1.60
     1.679487         12.01
     1.676283          2.25
     1.673522          3.33
     1.671788         16.34
     1.655561         21.14
     1.647073         25.51
     1.645079          5.49
     1.601818         14.27
     1.599321          0.14
     1.594134          0.51
     1.591951         23.02
     1.571584          2.88
     1.567167          0.87
     1.566078         11.16
     1.563288          4.80
     1.562855         14.68
     1.551306          1.08
     1.546601         11.31
     1.543300          0.71
     1.531567         51.32
     1.530633          9.81
     1.523130          0.97
     1.516552         27.13
     1.513030          2.04
     1.511664         11.94
     1.504771         37.51
     1.499783         28.32
     1.498669          0.66
     1.498534          7.39
     1.493008          3.96
     1.479208          5.05
     1.472215          0.15
     1.470699         23.65
     1.467653         13.64
     1.462721         13.03
     1.461124          1.73
     1.457274          1.57
     1.445677         37.69
     1.441347          0.33
     1.439988          1.56
     1.438753         34.68
     1.438457         22.06
     1.438429          4.39
     1.436229         27.06
     1.428978         16.87
     1.425239          9.44
     1.425093          1.88
     1.412082          0.40
     1.408757         12.29
     1.406386          0.91
     1.406241         16.35
     1.401989         14.25
     1.401390          9.29
     1.398722         14.93
     1.387517         10.06
     1.381679         38.45
     1.380055          3.83
     1.374179          3.82
     1.372516          0.05
     1.372422          0.43
     1.370899         22.34
     1.353869         45.73
     1.351765         18.29
     1.349756         20.88
     1.346238         46.86
     1.343505          2.75
     1.341342         11.10
     1.338894         17.95
     1.337954          7.56
     1.334685          7.29
     1.332334          0.86
     1.329788          8.54
     1.324791         30.95
     1.323598          2.09
     1.317960         33.97
     1.310929          2.46
     1.310615          4.77
     1.305710         10.07
     1.302768          1.36
     1.298371          2.23
     1.292706          0.04
     1.292124          8.79
     1.285125          8.45
     1.284821         18.45
     1.284501          0.03
     1.278344          2.45
     1.270400          0.20
     1.269728          4.18
     1.269515         21.80
     1.266280          0.13
     1.261654          0.11
     1.258208          2.01
     1.256188         12.70
     1.255141          0.76
     1.254412          0.21
     1.254293          0.29
     1.252105          0.98
     1.251625          1.16
     1.247643          9.01
     1.245419         20.44
     1.244048          0.37
     1.242071          0.02
     1.241420          0.65
     1.241194          0.43
     1.233596          4.41
     1.232466          2.50
     1.231081          5.96
     1.228089         13.20
     1.224139          5.26
     1.221439          4.11
     1.215613         19.57
     1.213648          1.24
     1.208928          1.12
     1.206645          0.17
     1.206205          2.56
     1.204853          0.00
     1.203070          0.11
     1.202062          0.25
     1.201242          0.37
     1.201213          0.40
     1.200994          1.18
     1.200728          6.16
     1.200143          0.61
     1.199490          1.34
     1.198124          1.40
     1.195091          6.12
     1.191676          0.22
     1.190244          1.15
     1.189194          0.75
     1.188571          6.13
     1.182348          3.57
     1.179592          1.31
     1.178859          4.68
     1.176646         18.57
     1.176635          5.29
     1.175947          2.83
     1.175057          2.68
     1.174144          5.21
     1.173867          8.25
     1.173748          4.37
     1.171423          0.00
     1.171176          2.13
     1.162055          4.82
     1.161674          0.05
     1.160154          0.10
     1.150913          4.82
     1.149175          0.11
     1.147472          0.41
     1.140992          8.14
     1.139664          0.00
     1.136669          3.85
     1.136413         11.89
     1.133425          7.94
     1.131465          0.32
     1.130829          6.69
     1.130430          2.59
     1.129383          7.88
     1.129262          0.02
     1.128765          5.20
     1.127310          0.78
     1.126767          3.78
     1.122441          8.15
     1.121186          8.85
     1.116341          1.69
     1.115760          0.63
     1.115131          0.15
     1.111974          9.43
     1.110122          0.07
     1.109909          3.69
     1.109471          3.68
     1.108906          0.48
     1.108162          3.56
     1.106845          4.19
     1.105343          1.25
     1.105234          1.33
     1.103042          2.83
     1.102333          4.82
     1.101731          0.78
     1.101534          0.30
     1.099419          2.14
     1.096924         12.52
     1.096706          0.10
     1.096108          0.57
     1.095762          0.12
     1.095432          8.98
     1.090435          2.01
     1.089147          0.03
     1.086719          4.85
     1.084647          0.94
     1.082670          7.34
     1.082278          6.13
     1.081002          7.45
     1.077575          2.63
     1.075571          3.22
     1.073906          0.02
     1.073300          0.00
     1.073111          0.37
     1.072426          0.65
     1.072411          0.00
     1.071177          0.89
     1.071095          0.42
     1.068969          2.36
     1.066232          1.94
     1.065411          0.48
     1.064925          0.05
     1.064698         11.66
     1.059779          2.30
     1.058944          1.35
     1.057195          3.33
     1.055554          0.08
     1.054118          0.43
     1.053196          0.81
     1.052612          3.13
     1.051469          0.21
     1.049167         10.83
     1.049042          6.16
     1.048016          0.00
     1.047464          9.63
     1.043708          0.42
     1.042192          0.13
##############################################################################
###                            Comments                                    ###
##############################################################################
###   New Cliffe Hill Quarry, Stanton-under-Bardon, Leicestershire, UK
###   Diffraction pattern calculated by Match!. 
###   I/Ic calculated by Match!. 
###   Space group has been derived from given symmetry operations. 
##############################################################################


