##############################################################################
###               Crystal structure data exported by Match!                ###
##############################################################################
###                           Data published by:                           ###
###                                                                        ###
###               COD (Crystallography Open Database)
##############################################################################
data_9014704
_citation_journal_full    'Acta Crystallographica, Section B'
_citation_journal_volume  '65(3)'
_citation_page_first  '334'
_citation_page_last   '341'
_citation_year  '2009'
_citation_title  'Structures of the pseudo-trigonal polymorphs of Cu2(OH)3ClNote: Sample'
loop_
_publ_author_name
  'Malcherek T.'
  'Schluter J.'
_chemical_formula_sum  'Cl Cu2 H3 O3'
_chemical_name_mineral  'Clinoatacamite'
_symmetry_space_group_name_H-M 'P 1 21/n 1'
_space_group_IT_number 14
_space_group_crystal_system 'monoclinic'
loop_
_symmetry_equiv_pos_as_xyz
   'x, y, z'
   '-x+0.5, y+0.5, -z+0.5'
   '-x, -y, -z'
   'x+0.5, -y+0.5, z+0.5'
_cell_length_a        6.16750
_cell_length_b        6.83270
_cell_length_c        9.15170
_cell_angle_alpha    90.0000
_cell_angle_beta     99.4920
_cell_angle_gamma    90.0000
loop_
_atom_site_label
_atom_site_fract_x
_atom_site_fract_y
_atom_site_fract_z
_atom_site_occupancy
_atom_site_B_iso_or_equiv
cu      0.000   0.500   0.500    1.00000    0.897
cu      0.000   0.000   0.000    1.00000    0.960
cu      0.259   0.237   0.749    1.00000    0.958
o      0.307   0.292   0.548    1.00000    1.318
o      0.422   0.982   0.776    1.00000    1.018
o      0.258   0.680   0.540    1.00000    1.063
h      0.281   0.181   0.486    1.00000    0.684
h      0.552   0.982   0.727    1.00000    0.684
h      0.246   0.795   0.477    1.00000    0.684
cl      0.112   0.996   0.307    1.00000    1.263
_cell_measurement_wavelength    1.541874
_cell_measurement_radiation   'x-rays'
_exptl_crystal_density_diffrn    3.729000
loop_
_pd_peak_d_spacing
_pd_peak_intensity
     5.480690        492.79
     5.447884       1000.00
     4.698165        246.38
     4.543381         22.27
     4.513200         11.72
     4.275261          1.05
     3.871304          0.69
     3.765842          1.83
     3.419429         51.75
     3.416350         25.75
     3.195153          5.49
     3.041529          6.36
     3.021273         21.27
     2.978730          9.42
     2.899216        219.80
     2.893193        123.84
     2.778664         11.33
     2.775878        415.43
     2.763065        419.55
     2.753642        370.93
     2.740345         87.92
     2.723942        172.87
     2.664195          0.09
     2.583847          0.83
     2.549855          6.95
     2.543413          0.00
     2.535861          1.08
     2.398617          0.17
     2.377407          0.59
     2.349083        167.79
     2.271690        631.24
     2.270168          5.82
     2.257956          0.90
     2.256600        305.32
     2.221462          0.01
     2.214369         22.70
     2.208352         25.74
     2.207848         18.64
     2.142763          0.06
     2.141451          2.67
     2.137631          0.38
     2.132965          1.03
     2.128169          1.08
     2.103193          5.14
     2.052074         43.28
     2.049443          0.46
     2.036217         95.16
     2.033325          0.08
     1.974802          0.52
     1.973023          2.43
     1.965351          0.95
     1.943895          6.05
     1.935652          4.22
     1.930954          0.29
     1.928619          6.91
     1.912100         53.04
     1.903398         99.46
     1.897656          0.90
     1.897153          1.84
     1.886758          0.55
     1.882921          0.57
     1.872995          1.52
     1.841358          4.36
     1.826897         30.49
     1.823083          2.28
     1.822296        159.03
     1.815961         56.45
     1.814199         87.74
     1.789586          0.28
     1.764900          1.05
     1.759124         13.58
     1.753677         17.84
     1.753443          0.40
     1.751577          0.67
     1.745387         19.06
     1.743688          4.53
     1.732637          2.12
     1.714282          1.54
     1.710083          1.05
     1.709715        263.82
     1.708175        129.99
     1.694465          0.35
     1.690854          6.23
     1.684235          1.38
     1.678386          4.79
     1.668539         38.32
     1.657718         16.90
     1.644565          6.00
     1.635287          0.33
     1.635181          0.00
     1.632346         28.88
     1.630803         23.30
     1.630194         27.85
     1.611018         13.96
     1.610983          0.30
     1.605359         11.54
     1.603472          8.86
     1.603019          0.50
     1.602291         11.87
     1.597577          5.09
     1.596881          8.56
     1.596136          0.88
     1.567826          3.59
     1.566055          2.99
     1.554112          0.14
     1.526473          0.03
     1.524541          1.17
     1.523483          2.36
     1.520765         33.38
     1.518939          6.11
     1.514460          0.66
     1.510636         68.57
     1.507203         12.25
     1.506618          0.88
     1.504400          0.17
     1.504046         50.80
     1.495073         44.47
     1.492286          0.18
     1.492041          0.66
     1.491414         53.27
     1.489365          0.95
     1.488936          3.36
     1.485474          3.02
     1.485448          0.97
     1.484441          3.30
     1.483719          0.57
     1.482742          0.06
     1.474488         14.90
     1.470933         29.41
     1.469210          0.14
     1.464439          0.72
     1.450798          0.67
     1.449608         40.21
     1.446597         23.17
     1.441309          1.56
     1.428410         14.81
     1.425388          5.47
     1.425087          0.22
     1.423610         14.20
     1.419298         17.32
     1.419035          0.47
     1.416733          3.24
     1.415226          0.27
     1.414755          6.83
     1.405365          1.01
     1.389332          6.00
     1.388740          0.32
     1.387939         67.17
     1.385243          9.76
     1.381532         63.77
     1.379821          1.21
     1.378382          8.36
     1.376821         69.14
     1.374204          2.28
     1.370172         36.16
     1.369609          6.66
     1.361971         68.01
     1.358200          1.91
     1.354190          0.41
     1.353781         17.05
     1.351293         16.71
     1.351144         18.34
     1.347226          0.43
     1.343427          2.42
     1.343074          0.22
     1.340561          0.08
     1.340291          0.13
     1.335956          0.71
     1.335491          1.25
     1.333310          0.78
     1.332098          0.28
     1.325945          0.05
     1.312850         16.66
     1.312160          0.57
     1.307900          0.33
     1.306396          1.16
     1.305899          9.91
     1.301729          2.41
     1.301236          0.17
     1.293891          0.58
     1.293847          1.06
     1.292756          3.13
     1.292082          0.34
     1.291924          2.58
     1.291425          2.19
     1.290435          0.05
     1.282682          0.18
     1.276800         18.10
     1.274928         61.18
     1.273880         14.32
     1.271706          0.68
     1.267930         29.84
     1.267118         12.72
     1.266303          1.06
     1.264741          0.94
     1.264294          0.60
     1.263690          0.16
     1.255281          0.03
     1.253577          7.27
     1.249844          3.44
     1.249498         23.00
     1.247723         14.97
     1.246647          0.14
     1.246506          0.16
     1.246255         17.15
     1.244223         23.46
     1.243656         23.53
     1.243385         15.81
     1.240771          1.69
     1.237746          0.84
     1.235641          0.22
     1.232925          3.55
     1.229547          4.39
     1.229444          0.85
     1.228474          0.45
     1.227618          0.19
     1.223721          8.48
     1.223632          0.34
     1.222918          0.12
     1.221260          2.03
     1.221109          0.84
     1.220719          0.07
     1.219820          0.12
     1.213330          0.26
     1.207314          0.85
     1.206410          0.04
     1.202986          0.00
     1.202208          0.07
     1.199309          0.28
     1.198684          2.20
     1.197773          0.65
     1.197295          1.62
     1.197204          0.88
     1.194706          0.06
     1.191443          1.02
     1.191174          0.83
     1.189622          3.43
     1.188703          0.22
     1.186588          0.31
     1.185874          0.05
     1.181210          0.00
     1.180653          1.14
     1.180220         10.45
     1.180140          1.26
     1.179755          0.68
     1.176620          0.02
     1.174541         11.92
     1.174086          0.80
     1.173761         19.25
     1.170350          0.01
     1.168914          0.00
     1.166527          0.00
     1.162997          2.01
     1.162553          0.14
     1.159714          3.67
     1.157563          0.20
     1.154458          0.01
     1.154347          3.94
     1.153550          0.23
     1.149991          5.29
     1.146107          0.60
     1.144556          1.42
     1.139810          4.55
     1.138783          2.84
     1.137416          0.52
     1.137192          0.10
     1.135845         13.29
     1.135522          0.80
     1.135084          1.42
     1.133211          0.84
     1.132887          0.10
     1.131081         11.14
     1.130161          0.12
     1.129827          1.14
     1.128978          0.28
     1.128300          6.58
     1.128020          0.84
     1.125020         11.73
     1.123831          0.30
     1.123726          0.02
     1.122121          9.99
     1.119787          0.00
     1.119338          0.60
     1.116170          5.87
     1.115529          3.05
     1.115137          6.30
     1.114969          5.38
     1.113732          0.34
     1.113224          0.09
     1.112684          4.94
     1.111792          0.01
     1.110731          0.02
     1.110147          0.56
     1.109829         11.33
     1.108726          0.08
     1.107963          0.47
     1.107830          0.02
     1.107686          3.22
     1.107184         15.37
     1.106736          9.01
     1.105853          0.40
     1.105539         11.04
     1.105045          0.13
     1.104176         14.25
     1.103924         15.71
     1.096138          0.85
     1.095705          0.27
     1.094275          0.02
     1.094209          1.45
     1.092696          0.15
     1.091528          0.04
     1.089577          2.52
     1.086168          0.30
     1.084552          0.12
     1.084252          0.15
     1.082299          0.95
     1.081859          1.17
     1.079952          0.16
     1.078801          0.97
     1.076293          0.03
     1.075923          0.26
     1.073107          0.92
     1.071835          0.00
     1.071382          0.35
     1.070726          1.27
     1.068815         20.38
     1.068329          5.27
     1.066689          0.04
     1.066482         19.15
     1.066442          0.08
     1.066325          1.71
     1.065529          9.38
     1.065051          1.28
     1.064790          1.31
     1.064085         18.94
     1.061774          4.42
     1.061177          0.20
     1.060744          0.18
     1.059781          4.06
     1.059653          2.55
     1.055505          0.01
     1.054449          0.01
     1.052334          2.27
     1.052050          1.13
     1.051597          0.90
     1.050605          2.16
     1.047885          0.45
     1.047560          0.17
     1.043904          0.08
     1.043730         11.02
     1.042763          0.61
     1.040958          0.42
     1.038842         10.43
     1.037455         11.27
     1.029650          0.13
     1.029167          0.62
     1.028890          0.02
     1.028665          0.33
     1.028001          0.23
     1.026037         13.81
     1.025285          0.10
     1.024722          0.10
     1.024023          0.76
     1.022683         11.05
     1.022082          0.01
     1.021872          0.51
     1.021326          0.49
     1.019659          0.58
     1.019637          0.13
     1.018108         24.94
     1.016856          6.53
     1.016663          0.74
     1.016455          0.49
     1.016329          0.60
     1.016223          0.43
     1.015909          0.26
     1.015218          0.05
     1.015091          0.67
     1.015068          2.02
     1.014945          0.20
     1.014661          0.12
     1.013843          0.42
     1.011525          0.45
     1.011418          0.05
     1.011037          0.01
     1.008673          1.27
     1.007091          1.56
     1.006883          1.02
##############################################################################
###                            Comments                                    ###
##############################################################################
###   Vendida mine, Sierra Gorda district, Chile
###   Diffraction pattern calculated by Match!. 
###   I/Ic calculated by Match!. 
##############################################################################


