##############################################################################
###               Crystal structure data exported by Match!                ###
##############################################################################
###                           Data published by:                           ###
###                                                                        ###
###               COD (Crystallography Open Database)
##############################################################################
data_9000968
_citation_journal_full    'American Mineralogist'
_citation_journal_volume  '70'
_citation_page_first  '590'
_citation_page_last   '600'
_citation_year  '1985'
_citation_title  'High-temperature structure refinements of calcite and magnesiteSample: T = 600 C'
loop_
_publ_author_name
  'Markgraf S. A.'
  'Reeder R. J.'
_chemical_formula_sum  'C Ca O3'
_chemical_name_mineral  'Calcite'
_symmetry_space_group_name_H-M 'R -3 c'
_space_group_IT_number 167
_space_group_crystal_system 'trigonal (hexagonal axes)'
loop_
_symmetry_equiv_pos_as_xyz
   'x, y, z'
   'x+0.66667, y+0.33333, z+0.33333'
   'x+0.33333, y+0.66667, z+0.66667'
   '-y, x-y, z'
   '-y+0.66667, x-y+0.33333, z+0.33333'
   '-y+0.33333, x-y+0.66667, z+0.66667'
   '-x+y, -x, z'
   '-x+y+0.66667, -x+0.33333, z+0.33333'
   '-x+y+0.33333, -x+0.66667, z+0.66667'
   'x-y, -y, -z+0.5'
   'x-y+0.66667, -y+0.33333, -z+0.83333'
   'x-y+0.33333, -y+0.66667, -z+0.16667'
   '-x, -x+y, -z+0.5'
   '-x+0.66667, -x+y+0.33333, -z+0.83333'
   '-x+0.33333, -x+y+0.66667, -z+0.16667'
   'y, x, -z+0.5'
   'y+0.66667, x+0.33333, -z+0.83333'
   'y+0.33333, x+0.66667, -z+0.16667'
   '-x, -y, -z'
   '-x+0.66667, -y+0.33333, -z+0.33333'
   '-x+0.33333, -y+0.66667, -z+0.66667'
   'y, -x+y, -z'
   'y+0.66667, -x+y+0.33333, -z+0.33333'
   'y+0.33333, -x+y+0.66667, -z+0.66667'
   'x-y, x, -z'
   'x-y+0.66667, x+0.33333, -z+0.33333'
   'x-y+0.33333, x+0.66667, -z+0.66667'
   '-x+y, y, z+0.5'
   '-x+y+0.66667, y+0.33333, z+0.83333'
   '-x+y+0.33333, y+0.66667, z+0.16667'
   'x, x-y, z+0.5'
   'x+0.66667, x-y+0.33333, z+0.83333'
   'x+0.33333, x-y+0.66667, z+0.16667'
   '-y, -x, z+0.5'
   '-y+0.66667, -x+0.33333, z+0.83333'
   '-y+0.33333, -x+0.66667, z+0.16667'
_cell_length_a        4.97800
_cell_length_b        4.97800
_cell_length_c       17.35400
_cell_angle_alpha    90.0000
_cell_angle_beta     90.0000
_cell_angle_gamma   120.0000
loop_
_atom_site_label
_atom_site_fract_x
_atom_site_fract_y
_atom_site_fract_z
_atom_site_occupancy
_atom_site_B_iso_or_equiv
ca      0.000   0.000   0.000    1.00000    2.869
c      0.000   0.000   0.250    1.00000    2.607
o      0.255   0.000   0.250    1.00000    5.031
_cell_measurement_wavelength    1.541874
_cell_measurement_radiation   'x-rays'
_cell_measurement_temperature    873.100000
_exptl_crystal_density_diffrn    2.678000
loop_
_pd_peak_d_spacing
_pd_peak_intensity
     3.860811         84.96
     3.058040       1000.00
     2.892333         16.90
     2.489000        144.64
     2.286339        143.38
     2.091954        119.93
     1.937764        170.51
     1.930406         59.79
     1.886609        158.94
     1.622298         19.50
     1.609862          8.54
     1.601441         67.33
     1.529020         21.93
     1.525397         44.80
     1.524319         14.65
     1.474977         10.37
     1.446167         24.09
     1.437025         40.76
     1.361655          5.89
     1.351757         13.69
     1.302827         21.03
     1.286937          5.43
     1.250424         16.34
     1.244500          8.18
     1.216662          0.04
     1.192849          0.01
     1.191304          2.32
     1.187879         12.63
     1.184484          4.19
     1.152702         22.59
     1.143170         10.42
     1.133427          1.48
     1.130476          0.01
     1.076964          0.00
     1.074563          3.70
     1.069550          0.23
     1.051846          6.85
     1.049135          0.94
     1.047143         13.79
     1.045977         10.59
     1.045629          0.01
     1.032630          0.74
     1.019347         12.57
##############################################################################
###                            Comments                                    ###
##############################################################################
###   Diffraction pattern calculated by Match!. 
###   I/Ic calculated by Match!. 
##############################################################################


