##############################################################################
###               Crystal structure data exported by Match!                ###
##############################################################################
###                           Data published by:                           ###
###                                                                        ###
###               COD (Crystallography Open Database)
##############################################################################
data_9005799
_citation_journal_full    'Physics and Chemistry of Minerals'
_citation_journal_volume  '13'
_citation_page_first  '146'
_citation_page_last   '151'
_citation_year  '1986'
_citation_title  'High temperature X-ray study of single crystal stishovitesynthesized with Li2WO4 as fluxSample: T = 300 C'
loop_
_publ_author_name
  'Endo S.'
  'Akai T.'
  'Akahama Y.'
  'Wakatsuki M.'
  'Nakamura T.'
  'Tomii Y.'
  'Koto K.'
  'Ito Y.'
  'Tokonami M.'
_chemical_formula_sum  'O2 Si'
_chemical_name_mineral  'Stishovite'
_symmetry_space_group_name_H-M 'P 42/m n m'
_space_group_IT_number 136
_space_group_crystal_system 'tetragonal'
loop_
_symmetry_equiv_pos_as_xyz
   'x, y, z'
   '-y+0.5, x+0.5, z+0.5'
   '-x, -y, z'
   'y+0.5, -x+0.5, z+0.5'
   'x+0.5, -y+0.5, -z+0.5'
   '-x+0.5, y+0.5, -z+0.5'
   'y, x, -z'
   '-y, -x, -z'
   '-x, -y, -z'
   'y+0.5, -x+0.5, -z+0.5'
   'x, y, -z'
   '-y+0.5, x+0.5, -z+0.5'
   '-x+0.5, y+0.5, z+0.5'
   'x+0.5, -y+0.5, z+0.5'
   '-y, -x, z'
   'y, x, z'
_cell_length_a        4.18980
_cell_length_b        4.18980
_cell_length_c        2.66940
_cell_angle_alpha    90.0000
_cell_angle_beta     90.0000
_cell_angle_gamma    90.0000
loop_
_atom_site_label
_atom_site_fract_x
_atom_site_fract_y
_atom_site_fract_z
_atom_site_occupancy
_atom_site_B_iso_or_equiv
si      0.000   0.000   0.000    1.00000    0.310
o      0.306   0.306   0.000    1.00000    0.379
_cell_measurement_wavelength    1.541874
_cell_measurement_radiation   'x-rays'
_cell_measurement_temperature    573.100000
_exptl_crystal_density_diffrn    4.258000
loop_
_pd_peak_d_spacing
_pd_peak_intensity
     2.962636       1000.00
     2.251300        249.25
     2.094900          6.60
     1.983141        397.73
     1.873735        147.51
     1.533631        575.77
     1.481318        194.28
     1.334700         98.83
     1.324931         61.82
     1.295251         12.64
     1.237468        258.55
     1.216909        100.20
     1.186787         21.56
     1.162041          4.63
     1.125650         10.81
     1.087100         25.46
     1.065464         28.26
     1.047450         34.76
     1.016176         24.23
##############################################################################
###                            Comments                                    ###
##############################################################################
###   Diffraction pattern calculated by Match!. 
###   I/Ic calculated by Match!. 
###   Space group has been derived from given symmetry operations. 
##############################################################################


