##############################################################################
###               Crystal structure data exported by Match!                ###
##############################################################################
###                           Data published by:                           ###
###                                                                        ###
###               COD (Crystallography Open Database)
##############################################################################
data_1528612
_citation_journal_full    'Journal of Solid State Chemistry'
_citation_journal_volume  '180'
_citation_page_first  '180'
_citation_page_last   '185'
_citation_year  '2007'
_citation_title  'Formation of gamma-Fe2 O3 nanoparticles and vacancy ordering: an in situx-ray powder diffraction study'
loop_
_publ_author_name
  'Jorgensen J.E.'
  'Mosegaard L.'
  'Hanson J.C.'
  'Jensen T.R.'
  'Thomsen L.E.'
_chemical_formula_sum  'Fe2 O3'
_chemical_name_mineral  'Hematite'
_chemical_name_common  'Iron(III) oxide'
_symmetry_space_group_name_H-M 'P 41 21 2'
_space_group_IT_number 92
_space_group_crystal_system 'tetragonal'
loop_
_symmetry_equiv_pos_as_xyz
   'x, y, z'
   '-y+0.5, x+0.5, z+0.25'
   '-x, -y, z+0.5'
   'y+0.5, -x+0.5, z+0.75'
   'x+0.5, -y+0.5, -z+0.75'
   '-x+0.5, y+0.5, -z+0.25'
   'y, x, -z'
   '-y, -x, -z+0.5'
_cell_length_a        8.33200
_cell_length_b        8.33200
_cell_length_c       25.11300
_cell_angle_alpha    90.0000
_cell_angle_beta     90.0000
_cell_angle_gamma    90.0000
_cell_formula_units_Z 32
loop_
_atom_site_label
_atom_site_fract_x
_atom_site_fract_y
_atom_site_fract_z
_atom_site_occupancy
_atom_site_B_iso_or_equiv
o      0.133   0.853   0.670    1.00000    1.000
fe      0.751   0.997   0.708    1.00000    1.000
o      0.385   0.626   0.339    1.00000    1.000
o      0.612   0.881   0.333    1.00000    1.000
o      0.612   0.881   0.667    1.00000    1.000
fe      0.751   0.997   0.042    1.00000    1.000
o      0.612   0.881   0.000    1.00000    1.000
fe      0.751   0.997   0.375    1.00000    1.000
o      0.385   0.626   0.673    1.00000    1.000
o      0.110   0.317   0.003    1.00000    1.000
fe      0.621   0.621   0.333    1.00000    1.000
o      0.133   0.853   0.000    1.00000    1.000
o      0.110   0.317   0.670    1.00000    1.000
fe      0.128   0.128   0.000    1.00000    1.000
fe      0.621   0.621   0.000    1.00000    1.000
o      0.110   0.317   0.336    1.00000    1.000
fe      0.369   0.869   0.665    1.00000    1.000
fe      0.369   0.869   0.331    1.00000    1.000
o      0.385   0.626   0.006    1.00000    1.000
o      0.133   0.853   0.333    1.00000    1.000
fe      0.369   0.869   0.998    1.00000    1.000
_cell_measurement_wavelength    1.541874
_cell_measurement_radiation   'x-rays'
_exptl_crystal_density_diffrn    4.867000
loop_
_pd_peak_d_spacing
_pd_peak_intensity
     7.908106         30.71
     6.942579         41.66
     6.278250         20.97
     5.905354         53.16
     5.891614         10.18
     5.735879         14.68
     5.333674         13.80
     5.014138          0.00
     4.817953         41.15
     4.301505          7.06
     4.296186          7.12
     4.166000          8.45
     4.109833         12.98
     3.954053          0.00
     3.822197          5.52
     3.740117         34.91
     3.729652         35.21
     3.726184         19.96
     3.685831          9.22
     3.572213          0.02
     3.471290          0.04
     3.412114         27.75
     3.404163         38.02
     3.295100          3.96
     3.206524          7.00
     3.204319         12.59
     3.139125          2.28
     3.064181          2.72
     2.992565          4.94
     2.952677        362.57
     2.945807        193.96
     2.937556          0.00
     2.925747          0.02
     2.867939         10.21
     2.783089         14.66
     2.778769          0.92
     2.770415          1.79
     2.760503          1.90
     2.718491          3.84
     2.711790          4.36
     2.666837          0.00
     2.645902          5.91
     2.636035         23.99
     2.634810          7.42
     2.620427          3.75
     2.584410          3.56
     2.578651          3.32
     2.541005          0.01
     2.539907          0.00
     2.521801        650.37
     2.513255       1000.00
     2.507069          0.00
     2.430492          1.22
     2.429531          3.38
     2.408976         85.60
     2.404458          3.18
     2.400744          6.68
     2.333248          2.69
     2.318353          5.37
     2.314193          6.08
     2.310881         18.89
     2.310186          1.05
     2.301159          2.70
     2.276653          0.01
     2.272713          0.01
     2.233505          2.64
     2.229784          4.92
     2.227560         10.99
     2.201841          1.28
     2.196145          0.95
     2.168641          3.36
     2.150753          0.00
     2.148093          0.00
     2.128764          0.81
     2.123616          1.79
     2.099336          1.86
     2.092750         90.79
     2.083000        152.35
     2.082491          0.01
     2.080077          0.00
     2.075871          0.01
     2.054917          0.00
     2.029706          2.14
     2.025798          0.00
     2.023021          4.03
     2.021360          9.27
     2.020807          4.47
     2.018137          1.46
     2.014296          1.60
     2.002083          1.35
     1.995134          2.82
     1.977026          3.27
     1.972036          1.46
     1.968451          4.50
     1.964379          9.70
     1.963871          2.67
     1.957894          0.70
     1.946673          1.52
     1.942733          1.64
     1.940283          0.55
     1.924093          0.01
     1.923616          0.01
     1.915714          3.81
     1.911960          0.17
     1.911099          1.90
     1.881853          0.58
     1.874754          1.20
     1.874313          0.82
     1.870059          1.21
     1.864826          0.01
     1.863092          1.52
     1.862728          1.60
     1.860999          2.29
     1.857986          2.33
     1.842916          0.03
     1.835616          0.65
     1.829025          0.55
     1.824665          8.17
     1.819803         15.91
     1.818594         13.41
     1.817853          0.85
     1.804518          0.00
     1.801378          0.00
     1.786106          0.01
     1.779776          2.95
     1.777891          0.97
     1.763630          0.48
     1.760699          1.00
     1.753607          0.75
     1.752525          1.03
     1.746787          1.94
     1.735645          1.40
     1.725401          0.79
     1.722656          0.41
     1.716012          0.58
     1.714998          0.78
     1.706057         58.96
     1.702081        123.13
     1.700485          0.01
     1.699170          0.02
     1.671379          1.49
     1.669195          4.21
     1.666400          0.19
     1.664902          0.40
     1.662743          1.12
     1.653427          1.37
     1.651916          2.18
     1.647550          0.00
     1.641392          0.71
     1.638734          3.69
     1.636675          6.35
     1.634332          9.35
     1.634040          0.01
     1.630591          0.71
     1.624092          0.88
     1.620377          0.89
     1.616255          0.00
     1.615408          0.01
     1.610631          0.00
     1.610440        108.19
     1.605984         99.47
     1.603770        249.07
     1.603262          0.00
     1.602159          0.00
     1.585877          0.27
     1.581621          0.90
     1.581356          0.50
     1.574380          1.32
     1.569563          0.47
     1.557908          0.67
     1.553873          0.60
     1.553451          2.17
     1.551197          7.32
     1.549450          5.21
     1.548206          6.67
     1.547214          2.85
     1.547005          0.20
     1.544285          0.46
     1.542434          0.00
     1.538761          0.00
     1.535600          0.00
     1.532091          1.47
     1.527135          7.58
     1.522152         13.39
     1.521444          2.18
     1.516664          0.30
     1.513173          0.64
     1.511320          0.78
     1.506828          0.44
     1.502267          1.10
     1.496283          0.00
     1.488820          0.21
     1.487055          0.46
     1.482775          0.51
     1.482121          0.50
     1.478645          0.38
     1.476339        389.65
     1.472903        181.36
     1.471869          0.01
     1.470377          0.01
     1.468778          0.00
     1.462873          0.00
     1.455550          0.03
     1.454551          0.18
     1.453695          1.29
     1.451233          0.64
     1.450619          2.78
     1.449427          0.32
     1.446475          0.66
     1.443445          0.79
     1.433970          0.90
     1.433835          1.69
     1.432881          0.23
     1.432062          1.23
     1.430688          8.41
     1.428926          0.22
     1.426619          0.42
     1.420722          0.32
     1.419763          0.43
     1.416988          0.00
     1.416417          0.00
     1.413382          0.01
     1.413064          0.27
     1.410051          3.53
     1.408552          1.64
     1.396383          0.33
     1.393294          0.34
     1.392295          0.43
     1.391544          0.90
     1.389384          0.16
     1.388667          0.51
     1.388516          1.24
     1.387799          0.98
     1.386548          0.36
     1.385208          0.00
     1.380251          0.00
     1.377177          0.20
     1.376009          0.97
     1.374387          0.36
     1.373254          0.26
     1.369944          0.17
     1.369772          0.48
     1.369628          0.33
     1.367739          0.33
     1.366452          0.00
     1.362540          0.00
     1.361694          0.01
     1.359245          0.00
     1.357620          0.85
     1.355895          0.01
     1.355781          4.53
     1.353119          0.00
     1.352291          3.43
     1.351794          1.25
     1.348439          0.44
     1.345983          0.54
     1.341512          0.52
     1.341027          0.65
     1.338451          0.31
     1.338290          0.60
     1.333419          0.50
     1.328757          0.27
     1.327502          0.29
     1.324454          0.13
     1.322951         22.98
     1.321509          0.26
     1.320502          0.00
     1.318018         21.86
     1.317405         20.14
     1.317276          0.00
     1.315596          0.01
     1.310213          1.15
     1.306583          0.85
     1.305414          0.15
     1.304944          0.90
     1.304224          0.10
     1.303607          1.51
     1.302569          2.64
     1.301830          2.29
     1.301387          0.30
     1.301240          0.06
     1.300526          0.23
     1.299496          0.32
     1.298392          0.39
     1.295035          0.26
     1.294308          0.43
     1.292205          0.01
     1.289681          0.12
     1.289325          0.00
     1.289227          1.41
     1.288533          0.29
     1.287938          0.06
     1.285798          2.65
     1.280794          0.23
     1.279670          0.26
     1.274299          0.01
     1.274160          0.00
     1.274066         32.09
     1.271856         89.96
     1.270503          0.00
     1.269954          0.00
     1.261798          0.33
     1.260901         13.85
     1.259849          0.21
     1.259652          0.28
     1.256627         37.01
     1.255650          0.06
     1.255454          0.52
     1.253535          0.69
     1.247574          0.25
     1.246706          0.44
     1.245690          0.23
     1.245281          3.42
     1.244656          0.19
     1.244119          1.74
     1.243217          0.08
     1.242575          3.23
     1.242061          0.12
     1.241953          0.20
     1.241630          0.00
     1.240545          0.25
     1.239584          0.00
     1.237676          0.00
     1.236661          0.01
     1.236029          0.00
     1.232980          0.26
     1.229605          0.44
     1.228610          1.99
     1.228069          0.08
     1.226090          0.18
     1.223261          0.26
     1.220875          0.54
     1.218446          0.35
     1.215246          0.00
     1.214766          0.00
     1.211238          0.18
     1.207976          0.32
     1.207622          0.16
     1.205913          0.00
     1.205740          0.20
     1.204975          0.00
     1.204488         20.99
     1.202523          0.01
     1.202229          0.00
     1.202057          0.01
     1.200372          0.00
     1.194371          0.93
     1.193478          0.09
     1.192568          0.17
     1.191303          0.25
     1.190738          2.16
     1.189906          0.50
     1.188951          0.07
     1.186424          0.16
     1.184974          0.22
     1.183727          0.66
     1.181419          0.16
     1.181071          3.15
     1.180537          0.10
     1.180079          0.29
     1.179310          1.13
     1.178432          0.71
     1.178323          0.66
     1.177028          0.27
     1.174576          0.18
     1.173709          0.21
     1.173168          0.27
     1.171959          0.81
     1.171601          0.00
     1.171279          0.00
     1.169454          0.00
     1.169381          0.47
     1.166820          1.03
     1.166624          0.57
     1.159177          0.01
     1.158206          0.06
     1.158102          0.28
     1.157528          0.39
     1.157097          0.48
     1.155440          0.68
     1.155354          0.28
     1.155093          0.00
     1.154941          0.30
     1.154219          0.33
     1.150579          0.00
     1.149438          0.30
     1.148797          0.19
     1.148119          1.93
     1.147325          0.20
     1.147176          0.25
     1.146098          0.07
     1.144890          0.00
     1.144589          0.87
     1.144488          1.12
     1.144151          0.00
     1.143302          0.20
     1.142549          0.00
     1.141054          0.00
     1.139764          0.00
     1.138654          0.22
     1.138326          0.00
     1.137371          0.05
     1.136356          0.01
     1.136289          1.77
     1.134721          0.60
     1.134232          3.61
     1.133939          0.75
     1.133513          0.13
     1.131956          0.13
     1.130936          0.20
     1.130502          0.21
     1.129729          0.06
     1.127561          0.17
     1.126029          0.30
     1.125933          0.22
     1.120660          0.05
     1.119486          0.21
     1.117656          0.18
     1.117376          0.14
     1.116752         19.60
     1.116022          0.00
     1.115884          0.17
     1.114892         21.09
     1.113780         19.76
     1.113333          0.01
     1.112963          0.00
     1.108037          0.01
     1.106143          0.15
     1.105857          0.81
     1.105419          0.18
     1.105043          0.35
     1.103960          0.16
     1.103298          0.30
     1.103165          0.19
     1.101862          0.23
     1.100920          0.00
     1.099807          0.26
     1.098367          0.71
     1.098073          0.00
     1.096522          0.06
     1.095817          0.14
     1.094835          1.07
     1.094045          0.27
     1.093008          0.13
     1.091434          0.00
     1.091045          0.16
     1.090350          0.18
     1.089916          0.09
     1.088946         47.23
     1.088659          0.00
     1.088400          0.01
     1.086877         43.89
     1.085504         66.81
     1.084819         37.31
     1.084321          0.00
     1.082613          0.09
     1.079231          0.14
     1.078011          0.22
     1.077803          0.20
     1.075586          0.19
     1.075376          0.16
     1.075253          0.19
     1.074047          0.35
     1.073589          0.05
     1.069742          1.16
     1.068979          0.12
     1.068841          0.26
     1.068446          0.09
##############################################################################
###                            Comments                                    ###
##############################################################################
###   Diffraction pattern calculated by Match!. 
###   I/Ic calculated by Match!. 
###   Space group has been derived from given symmetry operations. 
##############################################################################


