##############################################################################
###               Crystal structure data exported by Match!                ###
##############################################################################
###                           Data published by:                           ###
###                                                                        ###
###               COD (Crystallography Open Database)
##############################################################################
data_9015073
_citation_journal_full    'The Canadian Mineralogist'
_citation_journal_volume  '48'
_citation_page_first  '1225'
_citation_page_last   '1236'
_citation_year  '2010'
_citation_title  'Temperature dependence of the structural parametersin the transformation of aragonite to calcite,as determined from in situ synchrotron powder X-ray-diffraction dataNote: T = 681 CNote: P = 101 kPa'
loop_
_publ_author_name
  'Antao S. M.'
  'Hassan I.'
_chemical_formula_sum  'C Ca O3'
_chemical_name_mineral  'Calcite'
_symmetry_space_group_name_H-M 'R -3 c'
_space_group_IT_number 167
_space_group_crystal_system 'trigonal (hexagonal axes)'
loop_
_symmetry_equiv_pos_as_xyz
   'x, y, z'
   'x+0.66667, y+0.33333, z+0.33333'
   'x+0.33333, y+0.66667, z+0.66667'
   '-y, x-y, z'
   '-y+0.66667, x-y+0.33333, z+0.33333'
   '-y+0.33333, x-y+0.66667, z+0.66667'
   '-x+y, -x, z'
   '-x+y+0.66667, -x+0.33333, z+0.33333'
   '-x+y+0.33333, -x+0.66667, z+0.66667'
   'x-y, -y, -z+0.5'
   'x-y+0.66667, -y+0.33333, -z+0.83333'
   'x-y+0.33333, -y+0.66667, -z+0.16667'
   '-x, -x+y, -z+0.5'
   '-x+0.66667, -x+y+0.33333, -z+0.83333'
   '-x+0.33333, -x+y+0.66667, -z+0.16667'
   'y, x, -z+0.5'
   'y+0.66667, x+0.33333, -z+0.83333'
   'y+0.33333, x+0.66667, -z+0.16667'
   '-x, -y, -z'
   '-x+0.66667, -y+0.33333, -z+0.33333'
   '-x+0.33333, -y+0.66667, -z+0.66667'
   'y, -x+y, -z'
   'y+0.66667, -x+y+0.33333, -z+0.33333'
   'y+0.33333, -x+y+0.66667, -z+0.66667'
   'x-y, x, -z'
   'x-y+0.66667, x+0.33333, -z+0.33333'
   'x-y+0.33333, x+0.66667, -z+0.66667'
   '-x+y, y, z+0.5'
   '-x+y+0.66667, y+0.33333, z+0.83333'
   '-x+y+0.33333, y+0.66667, z+0.16667'
   'x, x-y, z+0.5'
   'x+0.66667, x-y+0.33333, z+0.83333'
   'x+0.33333, x-y+0.66667, z+0.16667'
   '-y, -x, z+0.5'
   '-y+0.66667, -x+0.33333, z+0.83333'
   '-y+0.33333, -x+0.66667, z+0.16667'
_cell_length_a        4.97590
_cell_length_b        4.97590
_cell_length_c       17.44860
_cell_angle_alpha    90.0000
_cell_angle_beta     90.0000
_cell_angle_gamma   120.0000
loop_
_atom_site_label
_atom_site_fract_x
_atom_site_fract_y
_atom_site_fract_z
_atom_site_occupancy
_atom_site_B_iso_or_equiv
ca      0.000   0.000   0.000    1.00000    3.308
c      0.000   0.000   0.250    1.00000    5.842
o      0.249   0.000   0.250    1.00000    5.842
_cell_measurement_wavelength    1.541874
_cell_measurement_radiation   'x-rays'
_exptl_crystal_density_diffrn    2.665000
loop_
_pd_peak_d_spacing
_pd_peak_intensity
     3.863640         78.76
     3.065634       1000.00
     2.908100         14.40
     2.487950        141.83
     2.287457        125.68
     2.091780        121.42
     1.946012        160.59
     1.931820         53.19
     1.890504        155.64
     1.621696         18.15
     1.617309          9.42
     1.601083         69.93
     1.532817         18.51
     1.529252         11.90
     1.525853         35.98
     1.475908          9.42
     1.454050         20.59
     1.436419         31.13
     1.363478          5.21
     1.355987         13.90
     1.305022         16.11
     1.287880          7.56
     1.255374         13.24
     1.243975          6.28
     1.216463          0.00
     1.197259          2.66
     1.192379          0.00
     1.190632         13.04
     1.184113          5.13
     1.152690         16.42
     1.143728         10.31
     1.136370          1.20
     1.130698          0.00
     1.078842          3.73
     1.077695          0.00
     1.069193          0.47
     1.057209          5.00
     1.053752          0.63
     1.048125          9.49
     1.046983          0.00
     1.045890          7.38
     1.035810          0.56
     1.021878          8.26
##############################################################################
###                            Comments                                    ###
##############################################################################
###   Cuenca, Spain
###   Diffraction pattern calculated by Match!. 
###   I/Ic calculated by Match!. 
##############################################################################


