##############################################################################
###               Crystal structure data exported by Match!                ###
##############################################################################
###                           Data published by:                           ###
###                                                                        ###
###               COD (Crystallography Open Database)
##############################################################################
data_2310433
_citation_journal_full    'Acta Crystallographica (1,1948-23,1967)'
_citation_journal_volume  '14'
_citation_page_first  '66'
_citation_page_last   '66'
_citation_year  '1961'
_citation_title  'Neutron-diffraction study of orthorhombic lead monoxide'
loop_
_publ_author_name
  'Leciejewicz J.'
_chemical_formula_sum  'O Pb'
_chemical_name_common  'Lead(II) oxide'
_symmetry_space_group_name_H-M 'P b c m'
_space_group_IT_number 57
_space_group_crystal_system 'orthorhombic'
loop_
_symmetry_equiv_pos_as_xyz
   'x, y, z'
   '-x, -y, z+0.5'
   'x, -y+0.5, -z'
   '-x, y+0.5, -z+0.5'
   '-x, -y, -z'
   'x, y, -z+0.5'
   '-x, y+0.5, z'
   'x, -y+0.5, z+0.5'
_cell_length_a        5.87600
_cell_length_b        5.47600
_cell_length_c        4.74300
_cell_angle_alpha    90.0000
_cell_angle_beta     90.0000
_cell_angle_gamma    90.0000
_cell_formula_units_Z 4
loop_
_atom_site_label
_atom_site_fract_x
_atom_site_fract_y
_atom_site_fract_z
_atom_site_occupancy
_atom_site_B_iso_or_equiv
o      -0.132   0.082   0.250    1.00000    1.000
pb      0.231   0.014   0.250    1.00000    1.000
_cell_measurement_wavelength    1.541874
_cell_measurement_radiation   'x-rays'
_exptl_crystal_density_diffrn    9.714000
loop_
_pd_peak_d_spacing
_pd_peak_intensity
     5.876000         46.38
     4.006069          3.35
     3.060480       1000.00
     2.938000        246.29
     2.738000        223.47
     2.588916          0.14
     2.481798          6.76
     2.371500        163.14
     2.371258         16.54
     2.272430         13.92
     2.199149          6.52
     2.198956          1.90
     2.040732          1.28
     2.003034        153.17
     1.958667         12.88
     1.845348        121.34
     1.845234          7.80
     1.844243          1.35
     1.792581        119.71
     1.748724          0.03
     1.743164          4.56
     1.718875        186.75
     1.714571          3.90
     1.636161        153.28
     1.593020         10.48
     1.550463          0.00
     1.530240        120.84
     1.510182         10.00
     1.510119          1.34
     1.473720          5.87
     1.470618        102.24
     1.469000         19.35
     1.455834          1.10
     1.418834          0.06
     1.404547          4.42
     1.369140          2.20
     1.369000         18.00
     1.359317         17.02
     1.349297          2.83
     1.335356          3.08
     1.333421          0.23
     1.333292          0.34
     1.322371         10.33
     1.315306          5.81
     1.297724          0.00
     1.294458         25.16
     1.285384         56.09
     1.283543          0.38
     1.248821         21.43
     1.248785          0.73
     1.241003          1.83
     1.240899         24.91
     1.217560          0.07
     1.200493          6.14
     1.200314         49.35
     1.185750         14.19
     1.185629         21.36
     1.175200          3.54
     1.171080         44.96
     1.163573          3.66
     1.162320          0.57
     1.162207          0.43
     1.149037          0.20
     1.144420          0.28
     1.136990          0.21
     1.136215         31.92
     1.122161          0.39
     1.122084          2.05
     1.116734         31.16
     1.112494          8.16
     1.106982          2.11
     1.099574         19.09
     1.099478         33.18
     1.091943          0.96
     1.088095         19.84
     1.079926          5.54
     1.078056          0.00
     1.076658          3.07
     1.069906          0.67
     1.055960          7.27
     1.052998          5.11
     1.052977          0.20
     1.049947         30.50
     1.034927          2.57
     1.034054          0.29
     1.030685          0.42
     1.026218          0.09
     1.020366         30.44
     1.020160         27.10
     1.019239          0.16
     1.014354          2.47
     1.014278          3.17
##############################################################################
###                            Comments                                    ###
##############################################################################
###   Diffraction pattern calculated by Match!. 
###   I/Ic calculated by Match!. 
###   Space group has been derived from given symmetry operations. 
##############################################################################


