##############################################################################
###               Crystal structure data exported by Match!                ###
##############################################################################
###                           Data published by:                           ###
###                                                                        ###
###               COD (Crystallography Open Database)
##############################################################################
data_9013576
_citation_journal_full    'American Mineralogist'
_citation_journal_volume  '94'
_citation_page_first  '451'
_citation_page_last   '460'
_citation_year  '2009'
_citation_title  'Molecular conformation and anion configuration variations for As4S4 andAs4Se4 in an anion-substituted solid solution Locality: synthetic Note:S1Se1-8'
loop_
_publ_author_name
  'Kyono A.'
_chemical_formula_sum  'As S0.61 Se0.39'
_chemical_name_mineral  'Realgar'
_symmetry_space_group_name_H-M 'P 1 21/n 1'
_space_group_IT_number 14
_space_group_crystal_system 'monoclinic'
loop_
_symmetry_equiv_pos_as_xyz
   'x, y, z'
   '-x+0.5, y+0.5, -z+0.5'
   '-x, -y, -z'
   'x+0.5, -y+0.5, z+0.5'
_cell_length_a        9.44600
_cell_length_b       13.62900
_cell_length_c        6.64960
_cell_angle_alpha    90.0000
_cell_angle_beta    106.4260
_cell_angle_gamma    90.0000
loop_
_atom_site_label
_atom_site_fract_x
_atom_site_fract_y
_atom_site_fract_z
_atom_site_occupancy
_atom_site_B_iso_or_equiv
as      0.119   -0.020   0.760    1.00000    2.329
as      0.424   0.140   0.859    1.00000    2.321
as      0.322   0.129   0.177    1.00000    2.313
as      0.040   0.161   0.710    1.00000    2.479
s      0.344   -0.009   0.698    0.53600    2.850
se      0.344   -0.009   0.698    0.46400    2.850
s      0.214   -0.024   0.119    0.53400    2.518
se      0.214   -0.024   0.119    0.46600    2.518
s      0.240   0.228   0.639    0.73700    2.597
se      0.240   0.228   0.639    0.26300    2.597
s      0.108   0.214   0.054    0.63200    2.597
se      0.108   0.214   0.054    0.36800    2.597
_cell_measurement_wavelength    1.541874
_cell_measurement_radiation   'x-rays'
_exptl_crystal_density_diffrn    4.054000
loop_
_pd_peak_d_spacing
_pd_peak_intensity
     7.545283         63.07
     6.814500        104.31
     6.088488        371.49
     5.776891        553.15
     5.559004        260.22
     5.446070       1000.00
     4.656677        109.62
     4.634942         65.06
     4.540271         13.41
     4.530234         33.86
     4.388131          0.31
     4.298964         12.30
     4.112835        149.30
     4.061091         12.59
     3.832473         30.42
     3.772641        124.00
     3.700316         56.84
     3.644966         73.99
     3.641096          7.00
     3.407250         18.18
     3.244404          7.57
     3.222170         95.36
     3.207863        381.06
     3.190098          0.92
     3.189198        427.40
     3.189101        436.95
     3.128264          7.41
     3.105223        124.61
     3.088202        434.46
     3.044244         10.28
     3.011851        119.87
     3.005312        179.24
     2.981850        239.24
     2.973325          0.05
     2.971031        204.42
     2.956378        484.86
     2.948627         25.01
     2.888446        158.33
     2.812840        230.07
     2.779502         31.52
     2.761132        151.70
     2.745279        554.44
     2.723035        178.70
     2.717002        232.23
     2.678495          0.61
     2.673839         92.15
     2.659987         27.00
     2.610235        173.85
     2.610181         69.88
     2.568212         18.46
     2.553987         48.70
     2.543099        195.09
     2.528955          0.08
     2.515094        110.26
     2.506502          0.05
     2.487855        176.48
     2.472541         71.18
     2.432830         86.48
     2.419857         88.08
     2.376437         85.45
     2.366696          5.58
     2.363483         11.86
     2.349601          0.86
     2.335610         17.18
     2.328339          1.62
     2.324275         48.90
     2.320429          5.08
     2.317471         15.54
     2.304344          2.55
     2.288190          1.12
     2.284677          0.65
     2.271500        168.81
     2.270135          2.26
     2.265117         23.61
     2.260094         48.93
     2.249085         69.75
     2.234467         26.07
     2.225671         31.85
     2.213749        158.85
     2.203313        104.06
     2.194065         41.38
     2.185111         60.20
     2.171729          1.35
     2.156974         99.26
     2.150579          6.68
     2.149482         46.17
     2.148567        131.54
     2.139849          4.62
     2.130458         36.96
     2.128211         44.35
     2.105738         11.06
     2.105438          0.53
     2.100661         18.76
     2.096710          0.14
     2.090647          1.88
     2.072689         56.63
     2.072056          0.13
     2.064386          5.95
     2.061191         11.16
     2.056417         53.53
     2.043607          6.35
     2.039719          3.19
     2.030715          0.47
     2.030546         19.56
     2.029582          2.23
     2.029496         33.77
     2.027120          2.55
     2.023517         17.78
     2.009900         13.45
     2.007362         10.44
     2.001157         58.27
     1.990053         22.01
     1.962330         10.07
     1.950790          0.82
     1.948504          0.15
     1.946197          1.28
     1.945068          6.71
     1.943786         50.43
     1.937184          3.71
     1.931109         30.62
     1.925630          3.93
     1.917201          3.27
     1.916237          9.44
     1.903545         15.97
     1.889268         23.80
     1.889198         16.77
     1.886321          8.42
     1.877032          0.03
     1.875456        136.26
     1.874018         50.66
     1.871306         23.42
     1.867645        155.11
     1.862708         19.88
     1.862171          6.92
     1.856343          2.44
     1.854486          2.31
     1.853001          5.67
     1.850158         94.79
     1.833780          0.78
     1.831357          1.30
     1.829820        148.10
     1.822483         20.89
     1.820548          5.38
     1.820532        190.71
     1.815357         10.87
     1.813451          6.31
     1.804565        127.03
     1.803725         38.27
     1.796286          2.16
     1.795054          6.85
     1.794953          2.95
     1.792517         34.77
     1.788792          0.09
     1.781944         64.10
     1.781377         18.27
     1.774629         15.57
     1.767129          0.36
     1.765599         18.76
     1.757123         25.65
     1.751235         17.38
     1.749999          8.12
     1.744382         24.80
     1.743623         72.47
     1.742116          3.65
     1.730168         14.18
     1.718419        127.59
     1.707349         72.84
     1.703625         58.31
     1.703087          1.31
     1.700474          8.05
     1.697235         65.67
     1.692949        154.28
     1.691454         39.02
     1.689802        100.57
     1.683554          2.77
     1.683138          2.11
     1.682042         31.46
     1.679003          5.44
     1.676426         39.52
     1.674415          0.19
     1.674285         30.89
     1.672758         37.18
     1.661779         10.86
     1.658090         44.79
     1.652221         67.93
     1.646995         13.13
     1.645954          4.70
     1.645924          2.33
     1.640624          9.24
     1.640610          7.66
     1.640224         28.25
     1.640184          3.63
     1.636425         26.63
     1.634852         54.50
     1.628865          0.42
     1.628380          0.01
     1.627845          0.47
     1.626394          4.60
     1.624416          3.05
     1.622202          9.06
     1.614936         55.19
     1.613000         22.71
     1.611993         22.66
     1.611085          3.13
     1.605673          0.06
     1.603932          7.54
     1.599901          7.28
     1.599480          1.02
     1.599030          0.37
     1.598959          1.50
     1.595049         71.62
     1.594712         19.94
     1.594599         11.17
     1.594550          1.74
     1.593385          7.42
     1.586379          0.42
     1.585381         33.71
     1.584542          0.09
     1.583748          5.29
     1.581962         16.83
     1.580142          5.04
     1.578642          0.18
     1.571256         16.25
     1.567426          6.82
     1.564132         31.43
     1.562161          0.00
     1.557591          0.19
     1.555989         30.27
     1.552722          6.44
     1.552698          3.69
     1.552651          7.78
     1.552612          5.77
     1.552226          2.04
     1.544981          3.43
     1.544101          0.62
     1.543085          5.04
     1.535149          0.05
     1.534285         21.87
     1.532257         54.62
     1.531227          4.22
     1.529672          9.75
     1.529576          2.61
     1.522122         55.94
     1.519191          0.00
     1.518034          3.70
     1.515355          2.70
     1.513424         20.69
     1.512717         31.18
     1.511979         57.61
     1.510078          1.62
     1.509057          1.50
     1.508266          5.49
     1.506741         13.37
     1.505925          3.46
     1.504564          5.89
     1.502656         22.78
     1.500893          0.02
     1.500523          3.65
     1.493615          2.81
     1.491699          6.49
     1.490925         28.92
     1.490725         18.27
     1.490695         34.78
     1.486688          3.15
     1.486663          0.14
     1.486633          0.12
     1.486019         39.77
     1.485515         13.94
     1.483832          7.97
     1.479930          2.80
     1.478189         67.98
     1.476509          1.12
     1.474313          9.69
     1.473642          0.30
     1.473376          2.14
     1.469560          1.64
     1.469214          9.98
     1.467755         48.63
     1.466301         22.88
     1.464644          9.47
     1.462710          0.54
     1.461999          5.55
     1.461964         15.42
     1.456123         27.31
     1.452491          3.36
     1.451519          4.69
     1.450900         13.12
     1.445285          1.70
     1.444223          5.33
     1.443268          4.04
     1.439453          0.46
     1.436217         39.80
     1.435876         19.32
     1.432988          0.03
     1.430045          2.13
     1.428856          3.03
     1.427797          4.17
     1.424932          0.31
     1.424104          8.96
     1.423080         12.76
     1.416590         16.04
     1.416559          1.15
     1.415905          9.21
     1.412907          2.47
     1.407084          0.28
     1.406998          5.26
     1.406420          2.07
     1.405653         16.48
     1.404996          2.75
     1.403738          6.30
     1.402864          9.70
     1.396671          0.05
     1.395418          0.06
     1.389751          3.99
     1.386637          0.77
     1.386328          0.17
     1.383747         27.69
     1.383527          2.06
     1.383449          0.00
     1.381921          1.09
     1.380566          1.07
     1.380278          2.52
     1.379211          8.09
     1.378075          1.55
     1.377504         35.26
     1.377228          4.87
     1.376349          7.78
     1.374967          0.24
     1.372994          0.29
     1.372640          5.69
     1.372616          1.26
     1.370945          0.03
     1.367945          4.04
     1.362900          1.03
     1.362146          0.88
     1.362109          0.01
     1.361518          5.21
     1.359663          0.01
     1.358501          1.78
     1.356606          2.12
     1.355846          7.52
     1.355839          1.83
     1.353697          0.32
     1.350116          2.05
     1.349409          4.05
     1.347738          0.26
     1.347715          0.09
     1.344778          4.40
     1.344091          0.08
     1.343512         15.48
     1.342184          2.36
     1.341360          1.73
     1.339247          0.72
     1.338279          0.01
     1.336920         29.61
     1.336134          0.01
     1.333342          3.48
     1.332812         11.15
     1.332045          4.24
     1.329993          0.11
     1.329986          3.87
     1.329462          8.84
     1.329028          0.22
     1.328959          8.63
     1.326475          0.74
     1.325965          0.80
     1.325938          0.04
     1.324829          1.01
     1.324202         22.28
     1.323632          7.90
     1.322378          0.90
     1.321314          0.13
     1.320920          0.50
     1.319333          0.03
     1.316055          0.02
     1.315585          1.65
     1.313952          0.01
     1.313852          4.89
     1.313359          3.06
     1.310780          0.25
     1.309962          0.00
     1.309498          1.07
     1.307544          6.79
     1.307095          1.99
     1.305364          0.77
     1.305294          8.50
     1.305117          4.30
     1.305091          2.26
     1.304838          0.68
     1.303831          0.01
     1.299586          4.74
     1.299171          0.00
     1.294281          0.21
     1.292931          1.81
     1.292178          2.25
     1.291733          3.33
     1.291377          7.64
     1.289470          1.52
     1.288555          0.19
     1.288484         11.74
     1.287587          9.00
     1.284106          0.01
     1.283891          1.37
     1.283189          0.15
     1.282505          0.06
     1.279084          1.14
     1.277642          4.85
     1.277491          3.05
     1.276994          2.40
     1.276353          4.22
     1.273695          0.34
     1.272065          0.89
     1.271852          0.07
     1.271617          7.66
     1.271549          0.00
     1.270936          7.54
     1.270300          0.85
     1.270089          3.71
     1.267685          0.87
     1.265179          0.22
     1.264477         11.31
     1.264149          0.09
     1.264083          0.12
     1.263666          2.42
     1.262359          1.21
     1.260590          0.29
     1.259750          0.28
     1.258909          0.08
     1.258645          0.01
     1.257547          0.51
     1.255762          0.70
     1.254675          1.76
     1.254600          2.46
     1.253861          2.03
     1.253251          1.10
     1.253239          9.49
     1.251530          0.95
     1.250876          0.81
     1.249879          1.08
     1.248202          2.24
     1.248145         16.39
     1.247307          0.14
     1.246873          1.19
     1.246842          5.58
     1.245780          0.41
     1.244815          5.12
     1.244751          9.07
     1.243927          0.00
     1.242923          0.44
     1.242268          0.63
     1.241220          6.45
     1.241024          0.60
     1.240780          0.61
     1.239387          0.70
     1.238891          0.22
     1.236270          7.00
     1.235692          4.95
     1.234265          2.83
     1.233632          0.00
     1.233439          0.02
     1.231216          0.64
     1.229929          0.25
     1.228908         10.72
     1.228143          0.19
     1.227660         15.69
     1.227575          2.30
     1.227278          4.13
     1.223374          2.79
     1.223348          0.28
     1.223121          1.38
     1.222770          0.00
     1.219364          0.24
     1.218765          8.56
     1.217698          0.02
     1.216581          0.10
     1.216415          1.99
     1.216265          4.46
     1.214989          0.93
     1.214513          0.57
     1.214116          3.07
     1.213699         11.46
     1.212866          5.83
     1.211763          0.28
     1.210244          5.99
     1.209987          0.28
     1.209928          1.33
     1.209821          4.12
     1.205996          3.59
     1.205959          3.29
     1.203879          0.13
     1.201428          1.15
     1.200299          0.36
     1.199922          0.50
     1.199778          5.29
     1.199209          0.40
     1.199162          0.00
     1.198731         11.18
     1.198710          0.97
##############################################################################
###                            Comments                                    ###
##############################################################################
###   Diffraction pattern calculated by Match!. 
###   I/Ic calculated by Match!. 
##############################################################################


