##############################################################################
###               Crystal structure data exported by Match!                ###
##############################################################################
###                           Data published by:                           ###
###                                                                        ###
###               COD (Crystallography Open Database)
##############################################################################
data_9007604
_citation_journal_full    'Acta Crystallographica, Section B'
_citation_journal_volume  '31'
_citation_page_first  '183'
_citation_page_last   '187'
_citation_year  '1975'
_citation_title  'The crystal structure of paratacamite, Cu2(OH)3ClSample: Substructure, with disordered oxygens'
loop_
_publ_author_name
  'Fleet M. E.'
_chemical_formula_sum  'Cl Cu2 O3'
_chemical_name_mineral  'Paratacamite'
_symmetry_space_group_name_H-M 'R -3'
_space_group_IT_number 148
_space_group_crystal_system 'trigonal (hexagonal axes)'
loop_
_symmetry_equiv_pos_as_xyz
   'x, y, z'
   'x+0.66667, y+0.33333, z+0.33333'
   'x+0.33333, y+0.66667, z+0.66667'
   '-y, x-y, z'
   '-y+0.66667, x-y+0.33333, z+0.33333'
   '-y+0.33333, x-y+0.66667, z+0.66667'
   '-x+y, -x, z'
   '-x+y+0.66667, -x+0.33333, z+0.33333'
   '-x+y+0.33333, -x+0.66667, z+0.66667'
   '-x, -y, -z'
   '-x+0.66667, -y+0.33333, -z+0.33333'
   '-x+0.33333, -y+0.66667, -z+0.66667'
   'y, -x+y, -z'
   'y+0.66667, -x+y+0.33333, -z+0.33333'
   'y+0.33333, -x+y+0.66667, -z+0.66667'
   'x-y, x, -z'
   'x-y+0.66667, x+0.33333, -z+0.33333'
   'x-y+0.33333, x+0.66667, -z+0.66667'
_cell_length_a        6.82700
_cell_length_b        6.82700
_cell_length_c       14.04100
_cell_angle_alpha    90.0000
_cell_angle_beta     90.0000
_cell_angle_gamma   120.0000
loop_
_atom_site_label
_atom_site_fract_x
_atom_site_fract_y
_atom_site_fract_z
_atom_site_occupancy
_atom_site_B_iso_or_equiv
cu      0.000   0.000   0.500    1.00000    0.845
cu      0.500   0.000   0.000    1.00000    1.041
o      0.210   0.790   0.065    0.76000    1.000
o      0.195   0.805   0.048    0.24000    1.000
cl      0.000   0.000   0.194    1.00000    1.210
_cell_measurement_wavelength    1.541874
_cell_measurement_radiation   'x-rays'
_exptl_crystal_density_diffrn    3.701000
loop_
_pd_peak_d_spacing
_pd_peak_intensity
     5.448987       1000.00
     4.680333        155.58
     4.522314         29.75
     3.413500         53.73
     3.018352         14.46
     2.892760        217.28
     2.757921        754.68
     2.724493        184.69
     2.536612          3.60
     2.340167        111.12
     2.261157        570.50
     2.206885         36.29
     2.129390          1.94
     2.036002         87.05
     1.970785          1.94
     1.930140         10.48
     1.899516         93.52
     1.885086          1.35
     1.816329        219.97
     1.748585         34.39
     1.706750        248.83
     1.682553          4.29
     1.659830         35.75
     1.628723         51.84
     1.603462         24.49
     1.596813         14.22
     1.560111          1.57
     1.509176         63.15
     1.507438         12.07
     1.492713         98.99
     1.485680          1.05
     1.469966         30.35
     1.446380         42.31
     1.418936         28.78
     1.416050          9.65
     1.380291         15.15
     1.378961        128.80
     1.366105          5.75
     1.362247         67.70
     1.350102         36.99
     1.331759          1.41
     1.307971         17.25
     1.290182          4.91
     1.269552         26.88
     1.268306         57.79
     1.265217          1.64
     1.247707          7.11
     1.243790         76.40
     1.223227         11.48
     1.221377          0.28
     1.198208          1.29
     1.189919          3.64
     1.188893          0.88
     1.178300          1.08
     1.171876         19.48
     1.170083          7.20
     1.166047          0.00
     1.151523          8.09
     1.137833          5.07
     1.130579         12.84
     1.129847          2.32
     1.123607         20.22
     1.120599          0.09
     1.113809         11.86
     1.108379          6.81
     1.106861          0.40
     1.105630         19.28
     1.103443         30.56
     1.089797          2.55
     1.073243          0.58
     1.066534          2.56
     1.064695         38.63
     1.062493          8.89
     1.058867          6.90
     1.049948          3.46
     1.038172         23.06
     1.023287          0.00
     1.018645         13.03
     1.018001         24.49
     1.016401          1.11
     1.014486          0.11
     1.007256          2.61
##############################################################################
###                            Comments                                    ###
##############################################################################
###   Diffraction pattern calculated by Match!. 
###   I/Ic calculated by Match!. 
##############################################################################


