##############################################################################
###               Crystal structure data exported by Match!                ###
##############################################################################
###                           Data published by:                           ###
###                                                                        ###
###               COD (Crystallography Open Database)
##############################################################################
data_9007057
_citation_journal_full    'Physics and Chemistry of Minerals'
_citation_journal_volume  '29'
_citation_page_first  '430'
_citation_page_last   '438'
_citation_year  '2002'
_citation_title  'The charge-density distribution, its multipole refinement and theantiferromagnetic structure of dioptase, Cu6[Si6O18].6H2O'
loop_
_publ_author_name
  'Belokoneva E. L.'
  'Gubina Y. K.'
  'Forsyth J. B.'
  'Brown P. J.'
_chemical_formula_sum  'Cu H2 O4 Si'
_chemical_name_mineral  'Dioptase'
_symmetry_space_group_name_H-M 'R -3'
_space_group_IT_number 148
_space_group_crystal_system 'trigonal (rhombohedral axes)'
loop_
_symmetry_equiv_pos_as_xyz
   'x, y, z'
   'z, x, y'
   'y, z, x'
   '-x, -y, -z'
   '-z, -x, -y'
   '-y, -z, -x'
_cell_length_a        8.81900
_cell_length_b        8.81900
_cell_length_c        8.81900
_cell_angle_alpha   111.7000
_cell_angle_beta    111.7000
_cell_angle_gamma   111.7000
loop_
_atom_site_label
_atom_site_fract_x
_atom_site_fract_y
_atom_site_fract_z
_atom_site_occupancy
_atom_site_B_iso_or_equiv
cu      0.059   0.470   -0.340    1.00000    0.453
si      0.083   0.217   -0.176    1.00000    0.290
o      0.026   -0.012   -0.264    1.00000    0.552
o      -0.046   0.216   -0.363    1.00000    0.492
o      0.323   0.374   -0.053    1.00000    0.573
o      0.619   0.720   0.397    1.00000    1.342
h      0.528   0.708   0.434    1.00000    4.737
h      0.755   0.802   0.517    1.00000    3.158
_cell_measurement_wavelength    1.541874
_cell_measurement_radiation   'x-rays'
_exptl_crystal_density_diffrn    3.275000
loop_
_pd_peak_d_spacing
_pd_peak_intensity
     7.298347       1000.00
     6.635769          9.66
     4.909767        361.88
     4.213702         62.88
     4.073750        274.43
     3.725065         26.68
     3.649173         77.44
     3.317885         53.59
     3.197565        217.54
     3.020420         32.49
     2.928804         39.74
     2.758516         85.12
     2.718109        216.21
     2.606773        602.37
     2.598771         36.62
     2.454884          0.19
     2.448198        147.76
     2.432782          3.58
     2.404930        118.32
     2.326785         12.33
     2.284119        132.65
     2.211923         44.73
     2.179857         22.37
     2.121158        213.72
     2.116840         20.44
     2.106851          1.66
     2.036875         78.83
     2.024197        117.36
     2.008069          5.14
     1.961902         29.52
     1.926316          0.80
     1.891562         18.91
     1.871391         24.38
     1.862532          3.74
     1.833855         12.09
     1.824587         23.64
     1.804693          9.66
     1.776021         21.09
     1.759293         73.13
     1.727998         78.13
     1.710305         40.04
     1.703534        140.84
     1.674356          8.58
     1.658942          0.91
     1.638582         50.12
     1.636589          0.05
     1.617678         14.24
     1.598783         31.28
     1.596931         18.28
     1.592630         26.78
     1.584738          1.11
     1.548651          1.16
     1.547535          1.79
     1.543619          0.09
     1.514921          0.58
     1.513876          8.16
     1.510210        108.49
     1.494801         13.14
     1.493288         55.56
     1.482323          7.36
     1.478881          0.32
     1.464402          2.41
     1.459669         39.49
     1.453587         35.83
     1.435785         11.72
     1.425587          1.37
     1.424716         69.14
     1.421659          3.02
     1.407515         47.60
     1.404567          5.73
     1.399145         65.65
     1.398322          0.14
     1.383249         11.74
     1.379258         20.81
     1.373343          1.06
     1.370604         25.54
     1.359054          6.59
     1.357917        104.92
     1.336087         20.88
     1.327154          0.20
     1.324682         16.51
     1.310822          5.87
     1.306411          9.72
     1.305741         28.96
     1.303386         13.05
     1.299386         13.94
     1.285332          6.85
     1.279269         22.89
     1.272660          5.57
     1.266462          0.74
     1.254636         13.81
     1.247815         28.57
     1.247231          7.40
     1.245178          1.68
     1.241688          8.93
     1.235642          3.43
     1.229967          4.34
     1.227442          2.30
     1.224099          1.68
     1.219126          8.55
     1.218304         18.76
     1.216391         13.02
     1.212328         12.99
     1.210443          4.65
     1.202465          9.30
     1.199841          8.70
     1.196456          9.08
     1.186469         28.75
     1.180695          5.54
     1.180201          5.37
     1.178461         12.14
     1.175501          5.92
     1.170367         25.00
     1.168671          1.22
     1.165066          3.25
     1.163392          0.08
     1.156304          2.69
     1.148887          1.23
     1.146145          1.36
     1.142059          0.19
     1.136907          1.83
     1.123359         16.33
     1.122933          1.35
     1.112987          1.54
     1.110284          5.16
     1.109872          1.84
     1.109461          0.01
     1.105962          0.68
     1.102290          0.27
     1.101683          5.00
     1.097257          2.77
     1.096860          0.94
     1.095859          9.60
     1.093478         16.77
     1.089929          7.71
     1.089342          2.20
     1.085448         19.65
     1.084679          0.26
     1.077974          1.51
     1.073266         15.30
     1.071958          8.06
     1.065855         10.95
     1.062207          2.55
     1.061846          2.55
     1.061486         15.99
     1.060579          0.15
     1.058420          5.38
     1.055200         15.25
     1.053426          3.75
     1.050783          1.68
     1.050434          0.07
     1.049555         14.24
     1.042621          2.70
     1.039721          8.81
     1.033811          2.76
     1.029985          4.46
     1.028500          0.22
     1.026531          9.50
     1.023107          0.58
     1.019879          0.31
     1.019241          8.06
     1.018438          5.10
     1.012099          0.36
     1.009754          1.86
     1.009445          6.60
     1.006807         30.71
##############################################################################
###                            Comments                                    ###
##############################################################################
###   Diffraction pattern calculated by Match!. 
###   I/Ic calculated by Match!. 
###   Space group has been derived from given symmetry operations. 
##############################################################################


