##############################################################################
###               Crystal structure data exported by Match!                ###
##############################################################################
###                           Data published by:                           ###
###                                                                        ###
###               COD (Crystallography Open Database)
##############################################################################
data_9015568
_citation_journal_full    'Journal of Solid State Chemistry'
_citation_journal_volume  '122'
_citation_page_first  '273'
_citation_page_last   '280'
_citation_year  '1996'
_citation_title  'A crystallographic contribution to the mechanism of a mechanicallyinduced solid state reactionNote: milling time = 30 min'
loop_
_publ_author_name
  'Calos N. J.'
  'Forrester J. S.'
  'Schaffer G. B.'
_chemical_formula_sum  'Cu O'
_chemical_name_mineral  'Tenorite'
_symmetry_space_group_name_H-M 'C 1 2/c 1'
_space_group_IT_number 15
_space_group_crystal_system 'monoclinic'
loop_
_symmetry_equiv_pos_as_xyz
   'x, y, z'
   'x+0.5, y+0.5, z'
   '-x, y, -z+0.5'
   '-x+0.5, y+0.5, -z+0.5'
   '-x, -y, -z'
   '-x+0.5, -y+0.5, -z'
   'x, -y, z+0.5'
   'x+0.5, -y+0.5, z+0.5'
_cell_length_a        4.67970
_cell_length_b        3.47680
_cell_length_c        5.11930
_cell_angle_alpha    90.0000
_cell_angle_beta     98.6440
_cell_angle_gamma    90.0000
loop_
_atom_site_label
_atom_site_fract_x
_atom_site_fract_y
_atom_site_fract_z
_atom_site_occupancy
_atom_site_B_iso_or_equiv
cu      0.250   0.250   0.000    1.00000    1.216
o      0.000   0.462   0.250    1.00000    8.606
_cell_measurement_wavelength    1.541874
_cell_measurement_radiation   'x-rays'
_exptl_crystal_density_diffrn    6.416000
loop_
_pd_peak_d_spacing
_pd_peak_intensity
     2.779451         50.81
     2.534725       1000.00
     2.530576        365.11
     2.348425        928.21
     2.313272        285.13
     1.961438          8.17
     1.851593        239.85
     1.792370          4.51
     1.738400        120.46
     1.644118          0.54
     1.592368        126.49
     1.503656        172.36
     1.432877        154.09
     1.409724          0.68
     1.408985        129.73
     1.389726        133.76
     1.387673        113.20
     1.372130          0.12
     1.312227         88.99
     1.310441          0.34
     1.310256          0.08
     1.267363         70.82
     1.265288         43.72
     1.210671          0.04
     1.192910          0.14
     1.187782         26.94
     1.174213         52.06
     1.165338          0.11
     1.163255         53.33
     1.156636         29.03
     1.124199          0.04
     1.123591          0.02
     1.117369         21.34
     1.114266          0.07
     1.106035         46.78
     1.089065         39.98
     1.045875         17.06
     1.041592          0.02
     1.028063          0.01
     1.023005         32.18
     1.015306         33.62
     1.013737          0.02
     1.013377          0.02
##############################################################################
###                            Comments                                    ###
##############################################################################
###   Synthetic
###   Diffraction pattern calculated by Match!. 
###   I/Ic calculated by Match!. 
###   Space group has been derived from given symmetry operations. 
##############################################################################


