##############################################################################
###               Crystal structure data exported by Match!                ###
##############################################################################
###                           Data published by:                           ###
###                                                                        ###
###               COD (Crystallography Open Database)
##############################################################################
data_1531762
_citation_journal_full    'Journal of the Physical Society of Japan'
_citation_journal_volume  '71'
_citation_page_first  '491'
_citation_page_last   '497'
_citation_year  '2002'
_citation_title  'Modulated structure of the thermoelectric compound (Ca2 Co O3)0.62 Co O2'
loop_
_publ_author_name
  'Miyazaki Y.'
  'Ono Y.'
  'Oku T.'
  'Kikuchi M.'
  'Onoda M.'
  'Kajitani T.'
  'Ishii Y.'
  'Morii Y.'
_chemical_formula_sum  'Co O2'
_chemical_name_common  'Co O2'
_symmetry_space_group_name_H-M 'C 1 m 1'
_space_group_IT_number 8
_space_group_crystal_system 'monoclinic'
loop_
_symmetry_equiv_pos_as_xyz
   'x, y, z'
   'x+0.5, y+0.5, z'
   'x, -y, z'
   'x+0.5, -y+0.5, z'
_cell_length_a        4.83390
_cell_length_b        2.82380
_cell_length_c       10.84360
_cell_angle_alpha    90.0000
_cell_angle_beta     98.1400
_cell_angle_gamma    90.0000
_cell_formula_units_Z 2
loop_
_atom_site_label
_atom_site_fract_x
_atom_site_fract_y
_atom_site_fract_z
_atom_site_occupancy
_atom_site_B_iso_or_equiv
co      0.000   0.000   0.000    1.00000    1.000
o      0.636   0.000   0.896    1.00000    1.000
o      0.363   0.000   0.084    1.00000    1.000
_cell_measurement_wavelength    1.541874
_cell_measurement_radiation   'x-rays'
_exptl_crystal_density_diffrn    2.060000
loop_
_pd_peak_d_spacing
_pd_peak_intensity
    10.734352       1000.00
     5.367176        144.83
     3.578117         27.79
     2.683588          6.28
     2.431934          9.91
     2.409483         19.72
     2.408840          4.71
     2.392599          9.41
     2.335879          5.06
     2.310333          2.48
     2.277616         28.59
     2.268096         13.88
     2.157548          4.33
     2.146870          2.31
     2.133387          2.19
     2.082206         28.69
     2.078587         14.20
     1.947250          5.53
     1.926502          2.77
     1.870311         10.41
     1.870265         20.70
     1.789059          1.53
     1.740800          6.87
     1.723830          3.38
     1.672137          5.78
     1.670195         11.33
     1.554905          6.90
     1.541276          3.35
     1.533479          1.37
     1.496071          2.58
     1.493316          5.02
     1.411900          3.20
     1.399843          5.54
     1.399465          6.14
     1.394023          5.51
     1.388815          5.39
     1.386629          5.26
     1.383093          2.65
     1.365445          3.65
     1.356223          3.60
     1.352161          3.44
     1.344406          1.03
     1.341794          1.27
     1.341418          2.02
     1.313351          1.94
     1.306049          1.92
     1.300616          1.83
     1.256969          3.62
     1.249515          0.97
     1.248143          1.73
     1.244008          0.95
     1.237757          0.93
     1.218083          0.89
     1.215967          1.47
     1.215254          0.45
     1.212316          0.90
     1.207915          0.44
     1.204742          0.60
     1.204420          0.73
     1.198631          2.15
     1.196300          0.29
     1.192706          1.10
     1.186199          1.05
     1.179655          0.59
     1.177404          0.58
     1.175682          0.57
     1.170830          0.27
     1.169092          0.59
     1.167940          2.53
     1.155166          1.21
     1.140632          2.06
     1.138808          0.76
     1.134048          0.36
     1.133429          0.98
     1.126864          2.36
     1.114245          1.11
     1.108331          0.53
     1.105586          0.50
     1.105445          0.27
     1.102684          0.55
     1.099013          0.53
     1.092286          1.05
     1.089139          0.50
     1.078774          1.77
     1.073435          0.88
     1.066694          0.83
     1.041631          1.09
     1.041103          1.31
     1.039294          0.64
     1.038690          0.61
     1.036885          0.59
     1.035681          0.53
     1.030561          0.62
     1.026832          1.12
     1.015539          0.52
     1.011761          0.23
     1.009222          0.48
##############################################################################
###                            Comments                                    ###
##############################################################################
###   Diffraction pattern calculated by Match!. 
###   I/Ic calculated by Match!. 
##############################################################################


