##############################################################################
###               Crystal structure data exported by Match!                ###
##############################################################################
###                           Data published by:                           ###
###                                                                        ###
###               COD (Crystallography Open Database)
##############################################################################
data_9000589
_citation_journal_full    'American Mineralogist'
_citation_journal_volume  '62'
_citation_page_first  '1042'
_citation_page_last   '1048'
_citation_year  '1977'
_citation_title  'Refinement of the crystal structure of pseudomalachite'
loop_
_publ_author_name
  'Shoemaker G. L.'
  'Anderson J. B.'
  'Kostiner E.'
_chemical_formula_sum  'Cu5 H4 O12 P2'
_chemical_name_mineral  'Pseudomalachite'
_symmetry_space_group_name_H-M 'P 1 21/c 1'
_space_group_IT_number 14
_space_group_crystal_system 'monoclinic'
loop_
_symmetry_equiv_pos_as_xyz
   'x, y, z'
   '-x, y+0.5, -z+0.5'
   '-x, -y, -z'
   'x, -y+0.5, z+0.5'
_cell_length_a        4.47280
_cell_length_b        5.74690
_cell_length_c       17.03200
_cell_angle_alpha    90.0000
_cell_angle_beta     91.0430
_cell_angle_gamma    90.0000
loop_
_atom_site_label
_atom_site_fract_x
_atom_site_fract_y
_atom_site_fract_z
_atom_site_occupancy
_atom_site_B_iso_or_equiv
cu      0.000   0.000   0.000    1.00000    1.000
cu      0.046   0.473   0.086    1.00000    1.000
cu      -0.017   0.329   0.257    1.00000    1.000
p      0.525   0.094   0.135    1.00000    1.000
o      0.711   0.156   0.062    1.00000    1.000
o      0.324   0.306   0.151    1.00000    1.000
o      0.741   0.076   0.208    1.00000    1.000
o      0.349   0.873   0.125    1.00000    1.000
o      0.172   0.320   -0.014    1.00000    1.000
o      0.152   0.072   0.317    1.00000    1.000
_cell_measurement_wavelength    1.541874
_cell_measurement_radiation   'x-rays'
_exptl_crystal_density_diffrn    4.368000
loop_
_pd_peak_d_spacing
_pd_peak_intensity
     8.514589         18.59
     5.445187          0.11
     4.763427        144.43
     4.472059       1000.00
     4.257294         30.34
     4.038513          6.25
     3.989193          5.13
     3.929849          0.78
     3.529360          0.75
     3.465826        247.56
     3.446094         83.21
     3.420885         14.53
     3.277060         46.73
     3.243922          4.56
     3.111909        398.38
     3.055838        233.78
     3.016743         71.73
     2.978124        265.86
     2.929952        208.29
     2.873450         71.56
     2.838196         60.82
     2.833397         46.05
     2.736475         21.73
     2.722593        177.32
     2.698114         24.66
     2.563691         39.47
     2.544773         14.60
     2.468580        180.55
     2.433390        342.82
     2.417440         67.49
     2.416316        267.96
     2.396727          6.61
     2.390173        354.59
     2.381713         42.86
     2.376840         15.19
     2.331562        166.86
     2.319538        175.70
     2.240283        113.62
     2.236029        142.47
     2.232074          0.08
     2.227438         42.71
     2.216295         39.89
     2.196400          9.55
     2.196224         46.75
     2.172434          0.05
     2.153091          2.20
     2.128647         58.98
     2.111110          2.01
     2.093346         94.89
     2.083852          6.86
     2.072667          0.09
     2.064206          0.99
     2.032090          6.97
     2.019257          0.22
     2.016590         47.99
     2.016232         15.45
     1.996118          2.94
     1.994597         45.61
     1.989696         24.03
     1.980551         24.99
     1.967025          8.03
     1.964925          0.59
     1.962239         47.88
     1.945552         43.91
     1.935745          4.23
     1.908588         10.50
     1.903627          5.77
     1.884330          7.32
     1.868918         16.05
     1.859252          0.09
     1.856687         78.01
     1.849355          0.69
     1.834474          1.21
     1.831476          0.60
     1.815062         26.20
     1.811310          0.12
     1.797226         28.08
     1.791109         36.24
     1.772171         25.93
     1.764680         34.37
     1.764256         67.39
     1.760882          2.23
     1.757872         26.13
     1.752829          0.99
     1.752701         24.19
     1.750260          0.12
     1.746930          6.56
     1.741082         29.76
     1.732913        152.28
     1.726849          0.08
     1.723271         39.43
     1.723047         37.93
     1.721947          0.53
     1.710443          7.99
     1.706397         47.11
     1.702918          0.01
     1.693481         14.70
     1.692032         32.73
     1.685240         15.04
     1.678418         17.75
     1.678306          7.13
     1.677666         21.77
     1.669650         61.29
     1.666290          5.44
     1.657712          0.05
     1.638530          1.07
     1.632744          9.92
     1.631322          8.06
     1.623083          9.30
     1.621961         33.24
     1.605432         17.43
     1.601164          4.91
     1.596047        113.28
     1.589838          3.88
     1.587809          0.18
     1.581894          5.84
     1.580288          5.48
     1.576125         36.35
     1.569513         27.85
     1.568782         12.63
     1.559635         30.75
     1.557735         78.73
     1.555955          6.66
     1.542417         11.69
     1.527919         59.80
     1.525169          4.41
     1.508371          0.28
     1.505036         61.19
     1.501881          3.23
     1.501123          2.14
     1.497164          7.58
     1.494820         34.28
     1.491514          0.09
     1.490686         31.69
     1.489062          5.77
     1.482931         10.81
     1.476622          0.80
     1.472914          2.44
     1.464976         52.61
     1.463834          5.90
     1.454767         10.63
     1.450945          7.98
     1.448034          1.45
     1.442934          0.23
     1.439918          0.05
     1.438294          0.64
     1.436815         12.40
     1.436725          0.10
     1.435655          0.25
     1.431639         24.49
     1.431304         59.07
     1.431176          7.54
     1.426798          1.58
     1.425269          0.25
     1.423929          4.31
     1.421592         21.65
     1.419098         25.45
     1.418786         13.76
     1.418539          1.86
     1.416698         22.65
     1.414988         20.45
     1.413254          2.34
     1.412805         19.07
     1.410284          3.49
     1.405227         17.88
     1.404380          2.16
     1.399011          0.63
     1.398675         26.22
     1.392804         37.68
     1.392612         37.80
     1.389147          0.00
     1.385776         40.89
     1.381630          7.26
     1.377716          0.76
     1.373954          2.12
     1.371652          0.69
     1.368238          1.41
     1.367868         19.78
     1.366812          1.94
     1.364082          1.07
     1.362892         12.43
     1.362871          2.87
     1.361612          1.52
     1.361297          0.12
     1.359784         40.50
     1.359313          0.15
     1.352059          9.84
     1.351730         27.03
     1.349375         10.98
     1.349057          0.45
     1.346171          0.16
     1.345587         53.70
     1.343595          0.83
     1.343034          0.41
     1.337104         24.59
     1.332148         18.92
     1.331492         48.72
     1.329731          5.64
     1.329721          3.25
     1.328119         21.60
     1.323763          0.12
     1.323247          0.92
     1.323222          0.79
     1.320895         16.82
     1.320285         22.14
     1.317602         31.28
     1.310745         44.78
     1.310153         10.12
     1.309950         18.57
     1.309560          7.43
     1.307796          0.79
     1.304415          2.58
     1.304333          9.49
     1.300879          3.36
     1.300191          8.62
     1.299872          0.50
     1.297908         10.53
     1.295504          0.55
     1.293669          0.29
     1.293301          0.05
     1.288431          5.39
     1.284453          0.22
     1.284093          2.50
     1.281846          0.02
     1.281375          0.09
     1.277191          0.50
     1.277178          0.03
     1.272733          0.20
     1.272387          3.96
     1.271772          7.81
     1.269422          2.93
     1.266884          8.03
     1.257847          2.01
     1.255120         15.12
     1.252920          3.71
     1.250758          8.26
     1.242093          4.98
     1.240188          2.56
     1.237093          2.00
     1.234917          1.52
     1.234290          7.55
     1.233874          1.45
     1.232734          4.24
     1.231626          0.16
     1.231566          0.05
     1.229551          0.02
     1.229107         11.60
     1.228532          3.24
     1.226732          0.31
     1.222363          0.07
     1.219763          1.32
     1.218592          6.64
     1.216695         15.08
     1.216370          1.63
     1.210736         14.67
     1.208720          3.59
     1.208158          9.74
     1.207752          0.01
     1.206778          0.55
     1.206525          5.81
     1.204849          0.74
     1.204281          7.40
     1.204071          1.08
     1.198364         20.13
     1.195161          4.51
     1.195086          5.50
     1.194498          0.02
     1.191934          0.53
     1.191924         11.45
     1.190857          1.54
     1.190007          2.14
     1.189489          0.02
     1.188420         18.95
     1.184729          0.61
     1.184591         12.03
     1.182314          4.89
     1.179852          3.43
     1.179177          0.01
     1.176453          1.22
     1.174817          5.62
     1.172499          1.36
     1.172135         12.76
     1.170363          7.64
     1.168354          3.20
     1.167659          0.20
     1.166820          0.34
     1.165781          1.04
     1.163796          0.97
     1.163119          0.14
     1.159952          0.00
     1.159769          0.40
     1.158555          0.97
     1.157246          7.85
     1.156496          0.60
     1.155557          0.15
     1.155275          0.30
     1.155112          0.67
     1.154595          3.91
     1.153681          0.01
     1.148698          3.59
     1.147853          0.80
     1.147001          1.50
     1.146771          2.32
     1.146751          0.44
     1.144933          0.68
     1.144243         15.29
     1.142660          0.41
     1.140295          0.70
     1.139049          3.59
     1.138159          0.04
     1.137747          0.00
     1.135594          5.20
     1.132022          4.67
     1.131907          1.34
     1.129795          0.71
     1.126518          4.94
     1.120142          7.77
     1.118015         11.68
     1.117595          0.01
     1.116946          0.04
     1.116037          0.03
     1.115737          1.51
     1.113755          6.32
     1.113719          4.00
     1.113201          1.01
     1.112632          0.04
     1.111665          0.45
     1.111474          5.88
     1.111158          0.25
     1.111113          3.12
     1.110571          7.61
     1.110503          1.16
     1.109651          0.81
     1.108831          0.26
     1.108147          0.16
     1.107086         11.47
     1.105904          7.38
     1.105613          3.34
     1.104451          1.06
     1.103165          2.04
     1.101092          2.60
     1.100639          0.90
     1.099692          0.01
     1.098200          3.34
     1.098112         11.46
     1.097440          0.48
     1.096426          0.33
     1.093915          2.79
     1.093329          1.62
     1.092691          4.35
     1.092353          6.10
     1.091459          0.18
     1.091433          0.60
     1.090911          0.23
     1.090894          9.50
     1.089037          9.01
     1.086739          5.54
     1.086217          4.69
     1.085979          1.74
     1.085297          2.02
     1.082308          2.91
     1.081307          0.24
     1.081300          0.93
     1.081094          3.85
     1.078250          0.50
     1.078188          3.74
     1.076764          0.57
     1.076545          1.02
     1.076245          1.24
     1.076231          8.81
     1.075799          0.63
     1.073918          5.11
     1.069344          2.57
     1.067320          4.11
     1.066460          2.98
     1.065338          0.03
     1.065125         18.51
     1.064933          0.63
     1.064324          3.01
     1.063546          9.56
     1.060432          0.48
     1.059534          6.28
     1.059127          4.39
     1.058347          1.64
     1.058140          1.85
     1.056702          2.30
     1.055857          0.81
     1.055555          3.61
     1.054640          6.42
     1.053928          0.21
     1.053198          2.00
     1.053143          4.60
     1.053095          1.28
     1.050044          1.88
     1.047425          0.29
     1.046736          3.89
     1.046673          0.04
     1.046528          3.92
     1.046377          0.01
     1.044662          8.16
     1.042828          0.27
     1.041926          1.47
     1.041058          0.11
     1.039676          0.16
     1.039229          0.06
     1.039146         10.86
     1.038908          1.47
     1.037938          2.24
     1.037303          8.53
     1.036781         21.44
     1.036333         15.55
     1.035981          0.06
     1.034745          0.08
     1.034469          2.51
     1.033821          0.46
     1.033356          4.56
     1.032103          0.51
     1.031777          0.10
     1.031517          1.51
     1.031185          0.45
     1.029793          1.48
     1.028474          9.92
     1.027906          3.40
     1.027901          0.49
     1.026852          0.28
     1.025368          0.99
     1.023736          0.05
     1.023456          5.12
     1.023196          7.86
     1.023069          2.31
     1.022237          4.77
     1.021897          0.55
     1.021732          3.70
     1.020909          0.10
     1.020808          1.66
     1.019982          7.96
     1.019893          0.00
     1.018613          8.11
     1.017488          0.00
     1.016045          1.01
     1.015950          3.75
     1.015447          7.53
     1.014975          0.00
     1.014101         18.69
     1.013996          7.24
     1.013985          1.02
     1.013951          1.15
     1.011363          4.12
     1.010525          6.39
     1.009870          0.11
     1.009628          7.60
     1.008295         15.31
     1.008145          0.08
     1.008116          4.45
     1.007517          0.43
     1.007130          2.24
##############################################################################
###                            Comments                                    ###
##############################################################################
###   Diffraction pattern calculated by Match!. 
###   I/Ic calculated by Match!. 
##############################################################################


