##############################################################################
###               Crystal structure data exported by Match!                ###
##############################################################################
###                           Data published by:                           ###
###                                                                        ###
###               COD (Crystallography Open Database)
##############################################################################
data_1541783
_citation_journal_full    'Canadian Journal of Chemistry'
_citation_journal_volume  '48'
_citation_page_first  '3124'
_citation_page_last   '3131'
_citation_year  '1970'
_citation_title  'Crystallographic studies of cobalt arsenates II. Crystal structure of Co8 As3 O16'
loop_
_publ_author_name
  'Krishnamachari N.'
  'Calvo C.'
_chemical_formula_sum  'As3 Co7.8 O16'
_chemical_name_common  'Co7.80 As3 O16'
_symmetry_space_group_name_H-M 'R -3 m'
_space_group_IT_number 166
_space_group_crystal_system 'trigonal (hexagonal axes)'
loop_
_symmetry_equiv_pos_as_xyz
   'x, y, z'
   'x+0.66667, y+0.33333, z+0.33333'
   'x+0.33333, y+0.66667, z+0.66667'
   '-y, x-y, z'
   '-y+0.66667, x-y+0.33333, z+0.33333'
   '-y+0.33333, x-y+0.66667, z+0.66667'
   '-x+y, -x, z'
   '-x+y+0.66667, -x+0.33333, z+0.33333'
   '-x+y+0.33333, -x+0.66667, z+0.66667'
   'x-y, -y, -z'
   'x-y+0.66667, -y+0.33333, -z+0.33333'
   'x-y+0.33333, -y+0.66667, -z+0.66667'
   '-x, -x+y, -z'
   '-x+0.66667, -x+y+0.33333, -z+0.33333'
   '-x+0.33333, -x+y+0.66667, -z+0.66667'
   'y, x, -z'
   'y+0.66667, x+0.33333, -z+0.33333'
   'y+0.33333, x+0.66667, -z+0.66667'
   '-x, -y, -z'
   '-x+0.66667, -y+0.33333, -z+0.33333'
   '-x+0.33333, -y+0.66667, -z+0.66667'
   'y, -x+y, -z'
   'y+0.66667, -x+y+0.33333, -z+0.33333'
   'y+0.33333, -x+y+0.66667, -z+0.66667'
   'x-y, x, -z'
   'x-y+0.66667, x+0.33333, -z+0.33333'
   'x-y+0.33333, x+0.66667, -z+0.66667'
   '-x+y, y, z'
   '-x+y+0.66667, y+0.33333, z+0.33333'
   '-x+y+0.33333, y+0.66667, z+0.66667'
   'x, x-y, z'
   'x+0.66667, x-y+0.33333, z+0.33333'
   'x+0.33333, x-y+0.66667, z+0.66667'
   '-y, -x, z'
   '-y+0.66667, -x+0.33333, z+0.33333'
   '-y+0.33333, -x+0.66667, z+0.66667'
_cell_length_a        6.04600
_cell_length_b        6.04600
_cell_length_c       28.06200
_cell_angle_alpha    90.0000
_cell_angle_beta     90.0000
_cell_angle_gamma   120.0000
_cell_formula_units_Z 3
loop_
_atom_site_label
_atom_site_fract_x
_atom_site_fract_y
_atom_site_fract_z
_atom_site_occupancy
_atom_site_B_iso_or_equiv
co      0.000   0.500   0.000    0.86990    1.000
o      0.143   -0.143   -0.038    1.00000    1.000
as      0.000   0.000   0.000    1.00000    1.000
o      0.000   0.000   0.132    1.00000    1.000
o      0.486   -0.486   -0.122    1.00000    1.000
co      -0.165   0.165   0.912    0.86990    1.000
o      0.000   0.000   0.374    1.00000    1.000
as      0.000   0.000   0.808    1.00000    1.000
_cell_measurement_wavelength    1.541874
_cell_measurement_radiation   'x-rays'
_exptl_crystal_density_diffrn    5.283000
loop_
_pd_peak_d_spacing
_pd_peak_intensity
     9.354000        239.51
     5.147158        301.70
     4.905550         12.43
     4.677000          4.61
     4.196140         72.94
     3.828563        496.00
     3.183039         23.65
     3.118000        298.59
     3.023000         45.94
     2.914227        352.84
     2.876513        146.80
     2.606676        476.28
     2.573579        195.95
     2.538836        465.42
     2.473372        248.71
     2.452775        439.17
     2.372565        678.03
     2.338500         66.48
     2.293366         70.56
     2.191978         14.52
     2.170392         11.97
     2.098070       1000.00
     1.995673         58.66
     1.974115          2.87
     1.959622          0.00
     1.914282          4.48
     1.904685         18.20
     1.871950          8.26
     1.870800         17.39
     1.866386         62.86
     1.849666         56.98
     1.827089        105.22
     1.774564          0.31
     1.745330          5.95
     1.723622        140.66
     1.715719         33.97
     1.665482         37.93
     1.663056          3.65
     1.635183        104.49
     1.617291        133.37
     1.591520          6.34
     1.590813         76.01
     1.574323          8.40
     1.563675         62.97
     1.559000         12.93
     1.522967          8.80
     1.511500        605.46
     1.492145          5.43
     1.458745         19.81
     1.457113        457.64
     1.450262         10.11
     1.444486          0.24
     1.438257          0.95
     1.422055          7.94
     1.421478          0.16
     1.408275          8.89
     1.405901         40.10
     1.398713         15.10
     1.396319         90.32
     1.385595          3.33
     1.365378          3.30
     1.360113        101.13
     1.355283          0.37
     1.341762         37.24
     1.336286         46.88
     1.312591          8.21
     1.307576         40.02
     1.303338         16.57
     1.289737         49.99
     1.286790         61.80
     1.286362          0.03
     1.276188         35.67
     1.274784         66.44
     1.269418         68.72
     1.267627          0.62
     1.262049         22.05
     1.244342          2.38
     1.239301          8.11
     1.236686         55.00
     1.226388         92.64
     1.222202         15.10
     1.204913         15.75
     1.200119         13.76
     1.196840          0.33
     1.188253          0.03
     1.186282          1.52
     1.183988          1.19
     1.183655          0.84
     1.175999          2.94
     1.175714         21.97
     1.174616         25.28
     1.169250         21.72
     1.164630         17.15
     1.162695          1.50
     1.150672          4.38
     1.146683          0.73
     1.144610          1.15
     1.142587          5.26
     1.136431         22.15
     1.134157         10.54
     1.119280          7.43
     1.118543          4.05
     1.109945         46.32
     1.105888          4.38
     1.104299         27.50
     1.097543          0.03
     1.095989          1.44
     1.090520         11.81
     1.090325          2.79
     1.086769          8.20
     1.085196         16.56
     1.072823          2.90
     1.072143          7.50
     1.061013          9.85
     1.057083         11.07
     1.049643         14.10
     1.049035        113.94
     1.046470          0.00
     1.044293          0.01
     1.039333          0.67
     1.038575          0.96
     1.035723          0.36
     1.035500          0.01
     1.031653         50.17
     1.030362          1.02
     1.029432          2.88
     1.026600         12.17
     1.025652         27.76
     1.013200          0.44
     1.009054          0.09
     1.007667          3.18
##############################################################################
###                            Comments                                    ###
##############################################################################
###   Diffraction pattern calculated by Match!. 
###   I/Ic calculated by Match!. 
##############################################################################


