##############################################################################
###               Crystal structure data exported by Match!                ###
##############################################################################
###                           Data published by:                           ###
###                                                                        ###
###               COD (Crystallography Open Database)
##############################################################################
data_1541183
_citation_journal_full    'American Mineralogist'
_citation_journal_volume  '75'
_citation_page_first  '1249'
_citation_page_last   '1252'
_citation_year  '1990'
_citation_title  'Rietveld refinement of the high-pressure polymorph of Mn3 O4'
loop_
_publ_author_name
  'Ross C.R.'
  'Rubie D.C.'
  'Paris E.'
_chemical_formula_sum  'Mn3 O4'
_chemical_name_mineral  'Hausmannite'
_chemical_name_common  'Manganese(II,III) oxide'
_symmetry_space_group_name_H-M 'P b c m'
_space_group_IT_number 57
_space_group_crystal_system 'orthorhombic'
loop_
_symmetry_equiv_pos_as_xyz
   'x, y, z'
   '-x, -y, z+0.5'
   'x, -y+0.5, -z'
   '-x, y+0.5, -z+0.5'
   '-x, -y, -z'
   'x, y, -z+0.5'
   '-x, y+0.5, z'
   'x, -y+0.5, z+0.5'
_cell_length_a        3.02400
_cell_length_b        9.79960
_cell_length_c        9.55640
_cell_angle_alpha    90.0000
_cell_angle_beta     90.0000
_cell_angle_gamma    90.0000
_cell_formula_units_Z 4
loop_
_atom_site_label
_atom_site_fract_x
_atom_site_fract_y
_atom_site_fract_z
_atom_site_occupancy
_atom_site_B_iso_or_equiv
o      0.684   0.146   0.250    1.00000    1.000
mn      0.203   0.115   0.930    1.00000    1.000
o      0.620   0.250   0.000    1.00000    1.000
o      0.796   0.969   0.889    1.00000    1.000
mn      0.810   0.800   0.250    1.00000    1.000
_cell_measurement_wavelength    1.541874
_cell_measurement_radiation   'x-rays'
_exptl_crystal_density_diffrn    5.366000
loop_
_pd_peak_d_spacing
_pd_peak_intensity
     4.899800         79.57
     4.778200         88.85
     4.360098        855.80
     3.420880        343.16
     3.024000        102.08
     2.889550       1000.00
     2.765878        257.08
     2.670686        479.42
     2.573364          6.86
     2.555263          0.92
     2.484849        107.71
     2.472588          0.68
     2.449900        122.61
     2.389100         38.63
     2.373157        117.78
     2.265676         85.42
     2.219085        272.76
     2.180049        110.59
     2.161572        727.12
     2.147428        341.77
     2.140209         54.50
     2.012627        677.78
     2.001776          5.87
     1.941985         78.99
     1.903587         14.74
     1.874641          2.41
     1.866909         24.15
     1.841254          4.73
     1.820825         23.38
     1.780609        243.75
     1.768416         63.06
     1.750870          5.51
     1.710440          5.65
     1.644693          6.79
     1.634051         17.92
     1.633267          2.04
     1.625915         82.25
     1.620863          0.00
     1.609923          0.08
     1.594112        241.31
     1.592733        171.83
     1.555145         53.67
     1.545475         48.36
     1.534372         42.11
     1.514717          0.91
     1.512000        136.52
     1.506942          2.55
     1.494318         98.17
     1.488787          0.03
     1.476377          4.57
     1.461399        418.88
     1.453366        285.42
     1.448179        148.73
     1.444775          0.01
     1.441549          1.36
     1.437059          0.09
     1.428542         36.95
     1.426200          0.27
     1.421081          0.03
     1.409217         23.81
     1.394868        178.92
     1.382939         30.49
     1.376167          0.00
     1.372135          4.82
     1.358206         24.74
     1.354717          0.88
     1.354317          3.96
     1.352859          8.80
     1.348751          2.31
     1.348310          0.75
     1.335343         49.40
     1.318834         17.64
     1.315767         48.92
     1.315107          0.01
     1.309931         27.58
     1.293941         16.37
     1.286682         24.56
     1.277631          0.66
     1.275176         11.04
     1.270411          7.16
     1.266909         20.73
     1.260196          4.10
     1.259332          3.26
     1.246662          4.54
     1.242425         31.66
     1.241664          0.87
     1.236294         25.78
     1.234366          0.41
     1.231449          1.10
     1.227757         53.54
     1.224950         10.37
     1.221546          0.16
     1.215009         27.30
     1.205998          1.06
     1.197157          0.61
     1.194550          0.03
     1.193034         14.41
     1.192542         15.96
     1.189856         16.33
     1.187872          0.86
     1.186578         46.27
     1.180029         24.54
     1.177221         16.31
     1.162775         30.06
     1.161263          0.24
     1.160558         10.39
     1.152537         55.55
     1.148608          0.23
     1.144161          0.86
     1.143329          3.04
     1.140293          0.15
     1.135339          0.00
     1.132838          0.23
     1.127411          2.08
     1.121686          6.46
     1.120631         56.09
     1.114636         12.17
     1.111008          0.91
     1.109542          0.15
     1.109392          4.14
     1.104586          4.26
     1.103936          5.07
     1.102139          0.09
     1.096576         51.99
     1.090024          5.19
     1.089774         23.64
     1.083504          0.14
     1.080786          7.62
     1.073714         43.37
     1.070302          0.02
     1.070105          1.21
     1.069444          0.90
     1.067353          0.49
     1.066958          1.10
     1.058009          0.00
     1.051834         45.23
     1.050463          9.21
     1.047800         93.11
     1.047467          5.17
     1.039563          7.44
     1.037735          7.32
     1.031316         13.71
     1.027242          2.42
     1.025441          4.62
     1.024458          1.16
     1.021359          4.55
     1.018622         13.99
     1.014564          0.04
     1.011826          4.90
     1.008000         18.56
     1.007904          0.39
##############################################################################
###                            Comments                                    ###
##############################################################################
###   Diffraction pattern calculated by Match!. 
###   I/Ic calculated by Match!. 
###   Space group has been derived from given symmetry operations. 
##############################################################################


