##############################################################################
###               Crystal structure data exported by Match!                ###
##############################################################################
###                           Data published by:                           ###
###                                                                        ###
###               COD (Crystallography Open Database)
##############################################################################
data_9016464
_citation_journal_full    'The Canadian Mineralogist'
_citation_journal_volume  '48'
_citation_page_first  '1225'
_citation_page_last   '1236'
_citation_year  '2010'
_citation_title  'Temperature dependence of the structural parametersin the transformation of aragonite to calcite,as determined from in situ synchrotron powder X-ray-diffraction dataNote: T = 477 CNote: P = 101 kPa'
loop_
_publ_author_name
  'Antao S. M.'
  'Hassan I.'
_chemical_formula_sum  'C Ca O3'
_chemical_name_mineral  'Calcite'
_symmetry_space_group_name_H-M 'R -3 c'
_space_group_IT_number 167
_space_group_crystal_system 'trigonal (hexagonal axes)'
loop_
_symmetry_equiv_pos_as_xyz
   'x, y, z'
   'x+0.66667, y+0.33333, z+0.33333'
   'x+0.33333, y+0.66667, z+0.66667'
   '-y, x-y, z'
   '-y+0.66667, x-y+0.33333, z+0.33333'
   '-y+0.33333, x-y+0.66667, z+0.66667'
   '-x+y, -x, z'
   '-x+y+0.66667, -x+0.33333, z+0.33333'
   '-x+y+0.33333, -x+0.66667, z+0.66667'
   'x-y, -y, -z+0.5'
   'x-y+0.66667, -y+0.33333, -z+0.83333'
   'x-y+0.33333, -y+0.66667, -z+0.16667'
   '-x, -x+y, -z+0.5'
   '-x+0.66667, -x+y+0.33333, -z+0.83333'
   '-x+0.33333, -x+y+0.66667, -z+0.16667'
   'y, x, -z+0.5'
   'y+0.66667, x+0.33333, -z+0.83333'
   'y+0.33333, x+0.66667, -z+0.16667'
   '-x, -y, -z'
   '-x+0.66667, -y+0.33333, -z+0.33333'
   '-x+0.33333, -y+0.66667, -z+0.66667'
   'y, -x+y, -z'
   'y+0.66667, -x+y+0.33333, -z+0.33333'
   'y+0.33333, -x+y+0.66667, -z+0.66667'
   'x-y, x, -z'
   'x-y+0.66667, x+0.33333, -z+0.33333'
   'x-y+0.33333, x+0.66667, -z+0.66667'
   '-x+y, y, z+0.5'
   '-x+y+0.66667, y+0.33333, z+0.83333'
   '-x+y+0.33333, y+0.66667, z+0.16667'
   'x, x-y, z+0.5'
   'x+0.66667, x-y+0.33333, z+0.83333'
   'x+0.33333, x-y+0.66667, z+0.16667'
   '-y, -x, z+0.5'
   '-y+0.66667, -x+0.33333, z+0.83333'
   '-y+0.33333, -x+0.66667, z+0.16667'
_cell_length_a        4.97750
_cell_length_b        4.97750
_cell_length_c       17.29490
_cell_angle_alpha    90.0000
_cell_angle_beta     90.0000
_cell_angle_gamma   120.0000
loop_
_atom_site_label
_atom_site_fract_x
_atom_site_fract_y
_atom_site_fract_z
_atom_site_occupancy
_atom_site_B_iso_or_equiv
ca      0.000   0.000   0.000    1.00000    2.163
c      0.000   0.000   0.250    1.00000    3.758
o      0.253   0.000   0.250    1.00000    3.758
_cell_measurement_wavelength    1.541874
_cell_measurement_radiation   'x-rays'
_exptl_crystal_density_diffrn    2.687000
loop_
_pd_peak_d_spacing
_pd_peak_intensity
     3.857887         81.98
     3.052699       1000.00
     2.882483         17.18
     2.488750        141.61
     2.284924        152.84
     2.091340        133.78
     1.932454        177.16
     1.928943         57.97
     1.883759        179.21
     1.622088         24.62
     1.605118          9.88
     1.601099         83.08
     1.526350         21.67
     1.524618         44.10
     1.521012         17.99
     1.473945         13.73
     1.441242         27.37
     1.436880         44.30
     1.360156          8.18
     1.348906         18.03
     1.301138         21.26
     1.285962          7.62
     1.247204         16.83
     1.244375          8.48
     1.216361          0.02
     1.192710          0.00
     1.187546          3.18
     1.185916         18.36
     1.184292          5.97
     1.152316         26.76
     1.142462         15.54
     1.131375          2.38
     1.129964          0.00
     1.076182          0.00
     1.071783          5.79
     1.069388          0.30
     1.048470          8.39
     1.046228         16.98
     1.046176          1.55
     1.045670         14.12
     1.044504          0.01
     1.030480          1.32
     1.017566         15.50
##############################################################################
###                            Comments                                    ###
##############################################################################
###   Cuenca, Spain
###   Diffraction pattern calculated by Match!. 
###   I/Ic calculated by Match!. 
##############################################################################


