##############################################################################
###               Crystal structure data exported by Match!                ###
##############################################################################
###                           Data published by:                           ###
###                                                                        ###
###               COD (Crystallography Open Database)
##############################################################################
data_4124049
_citation_journal_full    'Journal of the American Chemical Society'
_citation_journal_volume  '126'
_citation_page_first  '9769'
_citation_page_last   '9775'
_citation_year  '2004'
_citation_title  'Chemical evaluation of hypothetical uninodal zeolites'
loop_
_publ_author_name
  'Foster M.D.'
  'Friedrichs O.D.'
  'Bell R.G.'
  'Klinowski J.'
  'Paz F.A.A.'
_chemical_formula_sum  'O2 Si'
_chemical_name_common  'Silica'
_symmetry_space_group_name_H-M 'P 4/n b m'
_space_group_IT_number 125
_space_group_crystal_system 'tetragonal'
loop_
_symmetry_equiv_pos_as_xyz
   'x, y, z'
   '-x+0.5, -y+0.5, -z'
   '-y, x, z'
   '-x, -y, z'
   'y, -x, z'
   'y+0.5, -x+0.5, -z'
   '-y+0.5, x+0.5, -z'
   'x, -y, -z'
   '-x, y, -z'
   'y, x, -z'
   '-y, -x, -z'
   'x+0.5, y+0.5, -z'
   '-x+0.5, y+0.5, z'
   'x+0.5, -y+0.5, z'
   '-y+0.5, -x+0.5, z'
   'y+0.5, x+0.5, z'
_cell_length_a       11.96453
_cell_length_b       11.96453
_cell_length_c        4.25211
_cell_angle_alpha    90.0000
_cell_angle_beta     90.0000
_cell_angle_gamma    90.0000
_cell_formula_units_Z 16
loop_
_atom_site_label
_atom_site_fract_x
_atom_site_fract_y
_atom_site_fract_z
_atom_site_occupancy
_atom_site_B_iso_or_equiv
si      0.391   0.274   0.270    1.00000    1.000
o      0.626   0.626   0.000    1.00000    1.000
o      0.710   0.710   0.500    1.00000    1.000
o      0.148   0.352   0.863    1.00000    1.000
o      0.500   0.276   0.500    1.00000    1.000
_cell_measurement_wavelength    1.541874
_cell_measurement_radiation   'x-rays'
_exptl_crystal_density_diffrn    2.622000
loop_
_pd_peak_d_spacing
_pd_peak_intensity
     8.460200        218.42
     5.982265       1000.00
     4.252110         21.83
     4.230100         37.11
     3.799241          0.02
     3.783517         95.81
     3.465812         54.12
     3.328957        508.43
     2.998884          5.17
     2.991132          8.71
     2.826560          6.69
     2.820067          2.19
     2.675350         78.08
     2.616025        188.84
     2.446463        225.99
     2.396869         42.81
     2.350174          0.50
     2.346437         18.58
     2.264426          8.73
     2.126055          1.51
     2.115050          0.01
     2.085369          0.54
     2.061944          1.79
     2.054397         40.70
     2.051900          0.12
     2.003303          3.41
     1.994088          8.28
     1.975799          3.42
     1.969156         12.15
     1.899620          2.26
     1.893715          5.24
     1.891758          0.18
     1.853472          0.44
     1.847985         15.37
     1.805416          3.11
     1.790151         11.33
     1.785206        122.07
     1.732906          3.41
     1.728419          2.45
     1.715011          7.76
     1.710661          4.85
     1.697659          0.13
     1.692040         23.00
     1.664478         69.33
     1.659182          0.64
     1.644737          0.04
     1.589354          0.59
     1.575514          2.62
     1.572140          9.39
     1.571020          4.98
     1.545679          2.31
     1.536067         13.09
     1.532939          0.31
     1.499442         80.16
     1.495566         22.38
     1.476432          0.29
     1.473654          0.00
     1.454450         17.31
     1.450912          5.20
     1.443821          0.26
     1.441223          0.56
     1.417370          0.02
     1.413280         10.92
     1.410843          1.34
     1.410033          2.81
     1.403522          1.01
     1.401135         14.09
     1.397888          1.26
     1.390848          0.62
     1.379188          0.39
     1.373172          0.02
     1.370115          5.88
     1.366420          0.23
     1.343934          0.08
     1.338366          0.90
     1.337675          0.37
     1.330071         43.05
     1.327292          3.37
     1.323931         48.87
     1.321927          0.27
     1.321261         21.53
     1.308012          0.02
     1.303448         21.19
     1.300265          0.32
     1.280845          4.51
     1.276022          6.69
     1.273568          9.30
     1.266414          3.50
     1.263494          6.06
     1.261751          0.36
     1.261172         14.42
     1.252459          4.10
     1.242874          1.77
     1.241215         20.88
     1.223232          2.01
     1.219496          0.44
     1.216888          1.61
     1.215332         14.31
     1.213211          1.52
     1.209110          0.13
     1.208600          0.31
     1.198435          4.28
     1.196453          4.24
     1.194921         10.61
     1.177435          3.94
     1.175087          4.68
     1.173219          7.35
     1.169460          0.67
     1.168078          0.17
     1.166195          2.33
     1.163913         23.78
     1.162551          0.00
     1.162098          0.19
     1.155271          3.03
     1.151728          4.89
     1.149922         12.81
     1.146429          0.04
     1.134313          2.50
     1.132213          2.54
     1.130959          3.84
     1.129249          0.00
     1.122208          1.55
     1.120987          5.82
     1.110879          9.28
     1.109652          0.08
     1.107686          1.80
     1.106512         16.59
     1.089173          0.20
     1.088056          2.29
     1.086533          5.07
     1.084688          3.10
     1.083218          3.89
     1.077682          0.35
     1.074805          0.35
     1.073337          0.38
     1.070494          0.52
     1.063028          6.36
     1.057525          2.38
     1.054770          0.27
     1.054734          1.45
     1.052372          0.94
     1.050695          0.72
     1.049692          0.25
     1.049359          1.78
     1.046632          2.97
     1.042685          2.46
     1.042650          0.67
     1.040368          1.72
     1.038747          0.02
     1.037779          4.30
     1.030972          0.66
     1.028766          1.23
     1.027199          0.81
     1.026262          0.13
     1.025950          2.75
     1.024984          3.72
     1.023401          5.50
     1.019710          3.23
     1.018793          3.45
     1.013883          0.29
     1.012351          2.52
     1.008778          0.92
##############################################################################
###                            Comments                                    ###
##############################################################################
###   Diffraction pattern calculated by Match!. 
###   I/Ic calculated by Match!. 
###   Space group has been derived from given symmetry operations. 
##############################################################################


