##############################################################################
###               Crystal structure data exported by Match!                ###
##############################################################################
###                           Data published by:                           ###
###                                                                        ###
###               COD (Crystallography Open Database)
##############################################################################
data_9016133
_citation_journal_full    'Physics and Chemistry of Minerals'
_citation_journal_volume  '39'
_citation_page_first  '399'
_citation_page_last   '412'
_citation_year  '2012'
_citation_title  'Crystal-structure properties and the molecular nature ofhydrostatically compressed realgarNote: P = 0.89 GPa'
loop_
_publ_author_name
  'Hejny C.'
  'Sagl R.'
  'Tobbens D. M.'
  'Miletich R.'
  'Wildner M.'
  'Nasdala L.'
  'Ullrich A.'
  'Balic-Zunic T'
_chemical_formula_sum  'As S'
_chemical_name_mineral  'Realgar'
_symmetry_space_group_name_H-M 'P 1 21/n 1'
_space_group_IT_number 14
_space_group_crystal_system 'monoclinic'
loop_
_symmetry_equiv_pos_as_xyz
   'x, y, z'
   '-x+0.5, y+0.5, -z+0.5'
   '-x, -y, -z'
   'x+0.5, -y+0.5, z+0.5'
_cell_length_a        9.16400
_cell_length_b       13.22700
_cell_length_c        6.47000
_cell_angle_alpha    90.0000
_cell_angle_beta    106.5600
_cell_angle_gamma    90.0000
loop_
_atom_site_label
_atom_site_fract_x
_atom_site_fract_y
_atom_site_fract_z
_atom_site_occupancy
_atom_site_B_iso_or_equiv
as      0.118   -0.024   0.762    1.00000    1.989
as      0.427   0.138   0.855    1.00000    1.973
as      0.323   0.127   0.182    1.00000    1.973
as      0.036   0.162   0.710    1.00000    2.234
s      0.343   -0.010   0.694    1.00000    2.526
s      0.211   -0.026   0.119    1.00000    2.052
s      0.234   0.229   0.629    1.00000    2.447
s      0.107   0.215   0.052    1.00000    2.605
_cell_measurement_wavelength    1.541874
_cell_measurement_radiation   'x-rays'
_exptl_crystal_density_diffrn    3.781000
loop_
_pd_peak_d_spacing
_pd_peak_intensity
     7.317338         91.26
     6.613500         54.10
     5.923785        455.84
     5.615085        440.46
     5.406357        278.32
     5.283406       1000.00
     4.523819         94.00
     4.498039         12.67
     4.412512         13.72
     4.391947          0.61
     4.258536          1.37
     4.168176         53.89
     3.995830        237.90
     3.940465         43.55
     3.719323         52.10
     3.658669         75.92
     3.593426         51.48
     3.540451        111.95
     3.536874          2.31
     3.306750          5.81
     3.148642         34.99
     3.134948         14.34
     3.111587        414.09
     3.100818        485.43
     3.094723        298.31
     3.093622         41.86
     3.037887         11.53
     3.018969         81.32
     2.998079        404.97
     2.961892          0.56
     2.923910         70.28
     2.917875        242.24
     2.900091        281.71
     2.890313        189.55
     2.887353          0.01
     2.867282        618.91
     2.858760         18.92
     2.807543        110.44
     2.730603        136.92
     2.703178         14.95
     2.677313        130.50
     2.664265        482.72
     2.641703        111.61
     2.638822        169.51
     2.603976          3.07
     2.596154         82.00
     2.580147          3.24
     2.536359         37.23
     2.533020        202.46
     2.494116         15.04
     2.479202         30.99
     2.472500        140.95
     2.458622         22.15
     2.439113        149.49
     2.433271          5.54
     2.415485        179.22
     2.397045         99.42
     2.358627         59.83
     2.352282        115.56
     2.309474         82.92
     2.298183          1.88
     2.292801         25.83
     2.280273          0.74
     2.266079         10.83
     2.261910         12.17
     2.253587         30.20
     2.251719          0.68
     2.249019         21.14
     2.237132          0.41
     2.221091          1.05
     2.217197          0.19
     2.206256          0.12
     2.204500        124.88
     2.195973         19.43
     2.192126         58.29
     2.185797        127.81
     2.166321         17.34
     2.159788         31.93
     2.153776        128.04
     2.138190        125.34
     2.129268         37.09
     2.125779         75.87
     2.105932          3.64
     2.095838        109.04
     2.090696        137.33
     2.088117          2.40
     2.084088         57.62
     2.077168         10.66
     2.070013         40.85
     2.066071         43.70
     2.047914          0.22
     2.045805          1.53
     2.042419         30.19
     2.034189          1.61
     2.028787          5.81
     2.016492         56.01
     2.012523          0.04
     2.003427          7.36
     2.002742         29.05
     1.997915         45.58
     1.983609          4.80
     1.979539          2.25
     1.974595         31.99
     1.973071          4.62
     1.973021          0.04
     1.970232         33.94
     1.965656          1.93
     1.962896         17.55
     1.952953         12.87
     1.951118         14.48
     1.940770         42.40
     1.935219         20.76
     1.908639          6.97
     1.895377         10.55
     1.892863          0.12
     1.892062          5.73
     1.887170         42.17
     1.886645          1.57
     1.879891          3.60
     1.876212         13.90
     1.871695          5.95
     1.859679          4.04
     1.859662          6.40
     1.847312         11.60
     1.832797         30.44
     1.831578         34.65
     1.829334         10.26
     1.823439          5.02
     1.822028         99.72
     1.820276         67.16
     1.815451         35.84
     1.812079        130.04
     1.807532          9.10
     1.806874         20.92
     1.804724          8.89
     1.802119          4.99
     1.800205          2.64
     1.796713         82.07
     1.783109          0.08
     1.776296          0.47
     1.776049        110.66
     1.770226         24.98
     1.768437          7.14
     1.766228        111.31
     1.763579         13.60
     1.761135         24.76
     1.752875         34.00
     1.749626         81.71
     1.743177          1.78
     1.742096          5.52
     1.741485          4.63
     1.741295         26.64
     1.735743          0.07
     1.729264         58.58
     1.728054         22.02
     1.722630         10.70
     1.718353          1.33
     1.713479         18.06
     1.705825         25.05
     1.699464          4.98
     1.697896         20.32
     1.695336         55.72
     1.692396         28.79
     1.689669          5.21
     1.679897         21.20
     1.670219        130.31
     1.658322         74.09
     1.653375         45.61
     1.653041          6.88
     1.651414          0.92
     1.650138         42.69
     1.644403        135.14
     1.642761         34.76
     1.640669        104.29
     1.633389         35.99
     1.633238          4.44
     1.631997          8.78
     1.630582          4.26
     1.628866         35.76
     1.624842         18.17
     1.624682          0.33
     1.622623         26.64
     1.613580          3.11
     1.613446         23.93
     1.603034         62.81
     1.601575          4.47
     1.598562         19.17
     1.597574          1.33
     1.595498          8.58
     1.593005         21.17
     1.592509          3.37
     1.590938          9.31
     1.587662         19.92
     1.586537         37.63
     1.582387          0.00
     1.580984          1.43
     1.579553          1.14
     1.579051          0.11
     1.576538          8.25
     1.574321         12.20
     1.567918          7.70
     1.567474          2.11
     1.566985         18.67
     1.565457         48.01
     1.561776          0.22
     1.556426          1.39
     1.555794          2.40
     1.552622          2.83
     1.551858          3.23
     1.551426          6.03
     1.550409          0.12
     1.547361          6.37
     1.546811         49.66
     1.546782          3.95
     1.546493         21.08
     1.540731          0.22
     1.540570         28.80
     1.539867          6.78
     1.538050          0.44
     1.535880          4.99
     1.533567         12.09
     1.531535          0.05
     1.527059         15.92
     1.525073          8.42
     1.518944         18.98
     1.515303          0.52
     1.515180          0.70
     1.511103         27.48
     1.510031          0.74
     1.509485          6.53
     1.507940          1.93
     1.507405          8.72
     1.506547          5.59
     1.499346          5.15
     1.499040          1.28
     1.496493          3.88
     1.489805          0.07
     1.489505         26.70
     1.486587          3.95
     1.486325         48.77
     1.484490          6.03
     1.483945         25.51
     1.480946         50.21
     1.476782          6.72
     1.476506          0.61
     1.471750         26.32
     1.471469          2.97
     1.470837         21.00
     1.467129         42.82
     1.464471          7.31
     1.463982          0.40
     1.463468          0.64
     1.462614          6.25
     1.462239          3.07
     1.461955          2.11
     1.458937         14.75
     1.456192          4.07
     1.455097          0.51
     1.450046         17.16
     1.449518          7.80
     1.448595         35.31
     1.447809          3.99
     1.446729         16.52
     1.445531          0.95
     1.445157          7.48
     1.443676          0.85
     1.441879          2.05
     1.441515         39.19
     1.439696          3.63
     1.437206          0.33
     1.433641         71.33
     1.432312          0.74
     1.430059          2.43
     1.429733          0.00
     1.429380          2.84
     1.426423          2.56
     1.426345          5.31
     1.424925         17.27
     1.423216         11.89
     1.423077         48.76
     1.420406          9.74
     1.419512          0.01
     1.419252         14.84
     1.416283         24.80
     1.409796         12.80
     1.409340          0.03
     1.409004          7.83
     1.403868          1.41
     1.403771          6.80
     1.403402          0.48
     1.396989          4.51
     1.394710         17.83
     1.393706         42.77
     1.389495          0.37
     1.389392          0.14
     1.386891          1.94
     1.385086          3.37
     1.384655          0.19
     1.383729         10.31
     1.381877          6.38
     1.377462         14.64
     1.374715         12.84
     1.373885          1.26
     1.373590          4.68
     1.367050          7.09
     1.365533          0.02
     1.365312          5.59
     1.365301          2.28
     1.365197          2.84
     1.363376          4.14
     1.362876         15.51
     1.361016          8.99
     1.355873          0.05
     1.354281          0.06
     1.351589          0.10
     1.348421          0.08
     1.346479          0.19
     1.344001          3.07
     1.343032          1.57
     1.341947          0.08
     1.341677         21.70
     1.339556          4.46
     1.339509          4.33
     1.338657          1.51
     1.338177          1.63
     1.337610          7.12
     1.337482         27.12
     1.335014          4.32
     1.334221          0.56
     1.333589          0.98
     1.332139          0.18
     1.332133          3.86
     1.331943          4.72
     1.328051          2.03
     1.322700          3.40
     1.321447          0.02
     1.321415          0.06
     1.320851          5.38
     1.319641          0.10
     1.319411          2.34
     1.316509         18.94
     1.315597          1.98
     1.315070          1.88
     1.313488          0.34
     1.311497          1.46
     1.310598          1.44
     1.308443          2.73
     1.307954          0.74
     1.304404          0.42
     1.304300          5.80
     1.304202         13.28
     1.303131          1.93
     1.302096          5.17
     1.301988          0.11
     1.298717          0.02
     1.298077         28.41
     1.298004          0.46
     1.295450          4.69
     1.293605         16.42
     1.292839          2.54
     1.292234         13.58
     1.291189          5.00
     1.290911          4.05
     1.290074          1.21
     1.290057          0.26
     1.287847         15.51
     1.287765          1.42
     1.287299          0.76
     1.287048          1.66
     1.286617          0.15
     1.283728         17.72
     1.283711          0.16
     1.282360          2.33
     1.280917          0.09
     1.280682          0.03
     1.279677          3.10
     1.279651          1.76
     1.277382          6.44
     1.276476          0.16
     1.274720          0.00
     1.274701          3.45
     1.273729          3.98
     1.271652          0.17
     1.269916         12.58
     1.269139          1.58
     1.268972          2.62
     1.268180          2.83
     1.267758          0.05
     1.267667          2.10
     1.266510          4.19
     1.265808          0.22
     1.261389          3.53
     1.261173          0.80
     1.258432          0.37
     1.257324          1.93
     1.256373          1.17
     1.254352          8.05
     1.252921          6.09
     1.252775         17.04
     1.250720          2.27
     1.249233          0.43
     1.248986         13.94
     1.247058          0.24
     1.246097          1.46
     1.245945          2.84
     1.243391          0.14
     1.241625          4.87
     1.241067          1.98
     1.240989          5.42
     1.239774          1.73
     1.239601          2.38
     1.236718         12.24
     1.236250          0.30
     1.236082          2.80
     1.235563          0.61
     1.235484          0.16
     1.234910          0.37
     1.232846         13.84
     1.232408          0.72
     1.230278          1.69
     1.229849          0.50
     1.229311          7.08
     1.228959          1.59
     1.227658          0.43
     1.227251          0.57
     1.227002          0.71
     1.224263          0.84
     1.223874          0.08
     1.221375          0.05
     1.221373          0.74
     1.220813          2.51
     1.219702          1.97
     1.219556          0.23
     1.219073          2.29
     1.218391          9.41
     1.217015          0.02
     1.216659          2.53
     1.216635          2.13
     1.215721          0.05
     1.213968          1.28
     1.213326          0.20
     1.211704         21.16
     1.211669          1.06
     1.211239          4.41
     1.210533          2.03
     1.210159          2.99
     1.210105         11.52
     1.209104          0.35
     1.207743          0.00
     1.207324          0.54
     1.206912          3.20
     1.206342          0.05
     1.205409          1.15
     1.205018          0.04
     1.204568          1.76
     1.204009          9.12
     1.203302          0.24
     1.199982          8.00
     1.198583          0.21
     1.198523          6.92
     1.197809          1.51
     1.196713          1.42
     1.195616         12.08
     1.194572          0.01
     1.194244         18.97
     1.193981          0.00
     1.193632          0.00
     1.193429          3.52
     1.191344          3.69
     1.187222          1.28
     1.187055          1.23
     1.186912          1.99
     1.186889          0.19
     1.184757          0.05
     1.183082          7.18
     1.182635          0.54
     1.182374          0.23
     1.180470          4.66
     1.180150          2.71
     1.180033          6.60
     1.179313          0.03
     1.178958          9.06
     1.178422          3.75
     1.177936          0.98
     1.177678          0.17
     1.176141          2.49
     1.174516          9.57
     1.174369          4.18
     1.173208          0.00
     1.170858          2.80
     1.169838          6.13
     1.166962          0.09
     1.166192          0.25
     1.166052          0.79
     1.165608          0.00
     1.165226         11.77
     1.164168          0.61
     1.163919         13.37
     1.163886          7.86
     1.163711          0.04
##############################################################################
###                            Comments                                    ###
##############################################################################
###   Baia Sprie mine, Romania
###   Diffraction pattern calculated by Match!. 
###   I/Ic calculated by Match!. 
##############################################################################


