##############################################################################
###               Crystal structure data exported by Match!                ###
##############################################################################
###                           Data published by:                           ###
###                                                                        ###
###               COD (Crystallography Open Database)
##############################################################################
data_2310815
_citation_journal_full    'Acta Crystallographica (1,1948-23,1967)'
_citation_journal_volume  '22'
_citation_page_first  '808'
_citation_page_last   '812'
_citation_year  '1967'
_citation_title  'Polytype families in zinc sulfide crystals'
loop_
_publ_author_name
  'Mardix S.'
  'Alexander E.'
  'Steinberger I.T.'
  'Brafman O.'
_chemical_formula_sum  'S Zn'
_chemical_name_common  'Zinc sulfide'
_symmetry_space_group_name_H-M 'P 3 m 1'
_space_group_IT_number 156
_space_group_crystal_system 'trigonal (hexagonal axes)'
loop_
_symmetry_equiv_pos_as_xyz
   'x, y, z'
   '-y, x-y, z'
   '-x+y, -x, z'
   '-x+y, y, z'
   'x, x-y, z'
   '-y, -x, z'
_cell_length_a        3.82000
_cell_length_b        3.82000
_cell_length_c       62.59999
_cell_angle_alpha    90.0000
_cell_angle_beta     90.0000
_cell_angle_gamma   120.0000
_cell_formula_units_Z 20
loop_
_atom_site_label
_atom_site_fract_x
_atom_site_fract_y
_atom_site_fract_z
_atom_site_occupancy
_atom_site_B_iso_or_equiv
s      0.333   0.667   0.087    1.00000    1.000
s      0.333   0.667   0.787    1.00000    1.000
zn      0.000   0.000   0.450    1.00000    1.000
s      0.333   0.667   0.637    1.00000    1.000
zn      0.000   0.000   0.350    1.00000    1.000
s      0.000   0.000   0.688    1.00000    1.000
zn      0.667   0.333   0.900    1.00000    1.000
s      0.333   0.667   0.338    1.00000    1.000
zn      0.667   0.333   0.250    1.00000    1.000
zn      0.000   0.000   0.850    1.00000    1.000
zn      0.667   0.333   0.100    1.00000    1.000
zn      0.333   0.667   0.200    1.00000    1.000
s      0.333   0.667   0.988    1.00000    1.000
s      0.667   0.333   0.938    1.00000    1.000
s      0.667   0.333   0.738    1.00000    1.000
zn      0.333   0.667   0.600    1.00000    1.000
s      0.000   0.000   0.887    1.00000    1.000
zn      0.667   0.333   0.800    1.00000    1.000
zn      0.000   0.000   0.650    1.00000    1.000
zn      0.333   0.667   0.300    1.00000    1.000
s      0.000   0.000   0.487    1.00000    1.000
s      0.000   0.000   0.037    1.00000    1.000
zn      0.333   0.667   0.050    1.00000    1.000
s      0.000   0.000   0.388    1.00000    1.000
s      0.667   0.333   0.438    1.00000    1.000
s      0.667   0.333   0.287    1.00000    1.000
s      0.000   0.000   0.188    1.00000    1.000
zn      0.333   0.667   0.500    1.00000    1.000
zn      0.333   0.667   0.750    1.00000    1.000
zn      0.667   0.333   0.700    1.00000    1.000
zn      0.333   0.667   0.950    1.00000    1.000
zn      0.667   0.333   0.400    1.00000    1.000
zn      0.000   0.000   0.000    1.00000    1.000
s      0.333   0.667   0.537    1.00000    1.000
s      0.667   0.333   0.838    1.00000    1.000
s      0.667   0.333   0.138    1.00000    1.000
zn      0.667   0.333   0.550    1.00000    1.000
s      0.667   0.333   0.588    1.00000    1.000
s      0.333   0.667   0.237    1.00000    1.000
zn      0.000   0.000   0.150    1.00000    1.000
_cell_measurement_wavelength    1.541874
_cell_measurement_radiation   'x-rays'
_exptl_crystal_density_diffrn    4.091000
loop_
_pd_peak_d_spacing
_pd_peak_intensity
     3.308217         14.03
     3.303607         25.57
     3.289892        102.49
     3.267408        118.28
     3.236692        366.39
     3.198443        112.32
     3.153486        686.16
     3.130000        905.28
     3.102723        597.39
     3.047089         97.15
     2.987517        320.93
     2.924901        198.60
     2.860076        163.44
     2.793796         26.90
     2.726733        104.05
     2.659465         92.22
     2.592485         14.00
     2.526199         47.23
     2.460938         16.50
     2.396965         15.69
     2.334482          4.30
     2.273638          5.17
     2.214540          5.16
     2.157256         22.68
     2.101826         28.82
     2.048264         98.99
     1.996565         33.96
     1.946707        234.83
     1.910000       1000.00
     1.898658        234.68
     1.852376         44.48
     1.807811        173.68
     1.764911        127.99
     1.723619        123.76
     1.683876         22.54
     1.654108          1.48
     1.653531          2.66
     1.651804         10.78
     1.648936         12.62
     1.645623         84.22
     1.644946         39.94
     1.639859         12.57
     1.633704         79.35
     1.630412        640.12
     1.626519         71.71
     1.618346         12.20
     1.609230         42.44
     1.608800         59.35
     1.599222         27.90
     1.588374         24.51
     1.576743          4.31
     1.573349          6.01
     1.565000         24.25
     1.564386         17.57
     1.551361         16.02
     1.539211         12.24
     1.537728          2.46
     1.523545          8.39
     1.508869          2.99
     1.506330          2.51
     1.493759          2.92
     1.478268          0.83
     1.474651          1.44
     1.462451          1.05
     1.446358          1.07
     1.444121          0.26
     1.430038          4.90
     1.414689          0.24
     1.413537          6.49
     1.396898         23.20
     1.386305          0.22
     1.380162          8.28
     1.363367         59.57
     1.358924          1.01
     1.346546         61.81
     1.332499          1.50
     1.329733         12.17
     1.312956         49.30
     1.306988          6.20
     1.296242         37.70
     1.282350          2.59
     1.279616         37.72
     1.263099          7.11
     1.258545         21.84
     1.250388          0.95
     1.250139          1.74
     1.249392          7.04
     1.248150          8.26
     1.246711         27.41
     1.246417         26.18
     1.244199          8.26
     1.241504         52.30
     1.238343         47.44
     1.235537         26.45
     1.234724          8.08
     1.230661         28.12
     1.230469         19.93
     1.226167         18.42
     1.221258         16.09
     1.215947          2.81
     1.214388          2.07
     1.213291          6.05
     1.210537         47.21
     1.210253         11.43
     1.204192         10.55
     1.198483          4.32
     1.197782          1.67
     1.191773         28.42
     1.191042          5.88
     1.183992          2.17
     1.182763          0.90
     1.176648          2.18
     1.169032          0.63
     1.167241          0.52
     1.161163          0.81
     1.153058          0.86
     1.151924          0.09
     1.144738          4.02
     1.136819          0.09
     1.136221          5.44
     1.127526         19.90
     1.121933          0.08
     1.118669          7.26
     1.109669         53.41
     1.107270          0.42
     1.102739        119.13
     1.102568          0.00
     1.102055          0.00
     1.101202          0.00
     1.100543         56.73
     1.100012          0.00
     1.098486          0.00
     1.096631          0.00
     1.094450          0.00
     1.092834          0.66
     1.091949          0.00
     1.091307         11.42
     1.089136          0.00
     1.086018          0.00
     1.082602          0.00
     1.081975         47.36
     1.078897          0.00
     1.078628          2.88
     1.074914          0.00
     1.072565         37.02
     1.070660          0.00
     1.064654          1.27
     1.063088         37.92
     1.061387          0.00
     1.056388          0.00
     1.053560          7.30
     1.051162          0.00
     1.050913         11.18
     1.043994         28.79
     1.040077        111.83
     1.037406         14.13
     1.034400         21.33
     1.028224          0.00
     1.024792          2.26
     1.024132          3.37
     1.022039          0.00
     1.015696          0.00
     1.015179          4.78
     1.011091         16.49
     1.009208          0.00
##############################################################################
###                            Comments                                    ###
##############################################################################
###   Diffraction pattern calculated by Match!. 
###   I/Ic calculated by Match!. 
###   Space group has been derived from given symmetry operations. 
##############################################################################


