##############################################################################
###               Crystal structure data exported by Match!                ###
##############################################################################
###                           Data published by:                           ###
###                                                                        ###
###               COD (Crystallography Open Database)
##############################################################################
data_9005207
_citation_journal_full    'European Journal of Mineralogy'
_citation_journal_volume  '6'
_citation_page_first  '603'
_citation_page_last   '609'
_citation_year  '1994'
_citation_title  'Temperature dependence of the cation distribution in CoAl2O4 spinelQuenched from T = 850 C'
loop_
_publ_author_name
  'O?Neill H St C'
_chemical_formula_sum  'Al2 Co O4'
_chemical_name_mineral  'Spinel'
_symmetry_space_group_name_H-M 'F d -3 m'
_space_group_IT_number 227
_space_group_crystal_system 'cubic'
loop_
_symmetry_equiv_pos_as_xyz
   'x, y, z'
   'x+0.5, y+0.5, z'
   'x+0.5, y, z+0.5'
   'x, y+0.5, z+0.5'
   '-y, x+0.25, z+0.25'
   '-y+0.5, x+0.75, z+0.25'
   '-y+0.5, x+0.25, z+0.75'
   '-y, x+0.75, z+0.75'
   '-x+0.25, -y+0.25, z'
   '-x+0.75, -y+0.75, z'
   '-x+0.75, -y+0.25, z+0.5'
   '-x+0.25, -y+0.75, z+0.5'
   'y+0.25, -x, z+0.25'
   'y+0.75, -x+0.5, z+0.25'
   'y+0.75, -x, z+0.75'
   'y+0.25, -x+0.5, z+0.75'
   'x+0.25, -z, y+0.25'
   'x+0.75, -z+0.5, y+0.25'
   'x+0.75, -z, y+0.75'
   'x+0.25, -z+0.5, y+0.75'
   'x, -y+0.25, -z+0.25'
   'x+0.5, -y+0.75, -z+0.25'
   'x+0.5, -y+0.25, -z+0.75'
   'x, -y+0.75, -z+0.75'
   'x+0.25, z+0.25, -y'
   'x+0.75, z+0.75, -y'
   'x+0.75, z+0.25, -y+0.5'
   'x+0.25, z+0.75, -y+0.5'
   'z+0.25, y+0.25, -x'
   'z+0.75, y+0.75, -x'
   'z+0.75, y+0.25, -x+0.5'
   'z+0.25, y+0.75, -x+0.5'
   '-x+0.25, y, -z+0.25'
   '-x+0.75, y+0.5, -z+0.25'
   '-x+0.75, y, -z+0.75'
   '-x+0.25, y+0.5, -z+0.75'
   '-z, y+0.25, x+0.25'
   '-z+0.5, y+0.75, x+0.25'
   '-z+0.5, y+0.25, x+0.75'
   '-z, y+0.75, x+0.75'
   'z, x, y'
   'z+0.5, x+0.5, y'
   'z+0.5, x, y+0.5'
   'z, x+0.5, y+0.5'
   'y, z, x'
   'y+0.5, z+0.5, x'
   'y+0.5, z, x+0.5'
   'y, z+0.5, x+0.5'
   '-y+0.25, -z+0.25, x'
   '-y+0.75, -z+0.75, x'
   '-y+0.75, -z+0.25, x+0.5'
   '-y+0.25, -z+0.75, x+0.5'
   'z, -x+0.25, -y+0.25'
   'z+0.5, -x+0.75, -y+0.25'
   'z+0.5, -x+0.25, -y+0.75'
   'z, -x+0.75, -y+0.75'
   '-y+0.25, z, -x+0.25'
   '-y+0.75, z+0.5, -x+0.25'
   '-y+0.75, z, -x+0.75'
   '-y+0.25, z+0.5, -x+0.75'
   '-z+0.25, -x+0.25, y'
   '-z+0.75, -x+0.75, y'
   '-z+0.75, -x+0.25, y+0.5'
   '-z+0.25, -x+0.75, y+0.5'
   '-z+0.25, x, -y+0.25'
   '-z+0.75, x+0.5, -y+0.25'
   '-z+0.75, x, -y+0.75'
   '-z+0.25, x+0.5, -y+0.75'
   'y, -z+0.25, -x+0.25'
   'y+0.5, -z+0.75, -x+0.25'
   'y+0.5, -z+0.25, -x+0.75'
   'y, -z+0.75, -x+0.75'
   'y+0.25, x+0.25, -z'
   'y+0.75, x+0.75, -z'
   'y+0.75, x+0.25, -z+0.5'
   'y+0.25, x+0.75, -z+0.5'
   '-y, -x, -z'
   '-y+0.5, -x+0.5, -z'
   '-y+0.5, -x, -z+0.5'
   '-y, -x+0.5, -z+0.5'
   '-x, z+0.25, y+0.25'
   '-x+0.5, z+0.75, y+0.25'
   '-x+0.5, z+0.25, y+0.75'
   '-x, z+0.75, y+0.75'
   '-x, -z, -y'
   '-x+0.5, -z+0.5, -y'
   '-x+0.5, -z, -y+0.5'
   '-x, -z+0.5, -y+0.5'
   'z+0.25, -y, x+0.25'
   'z+0.75, -y+0.5, x+0.25'
   'z+0.75, -y, x+0.75'
   'z+0.25, -y+0.5, x+0.75'
   '-z, -y, -x'
   '-z+0.5, -y+0.5, -x'
   '-z+0.5, -y, -x+0.5'
   '-z, -y+0.5, -x+0.5'
   '-x, -y, -z'
   '-x+0.5, -y+0.5, -z'
   '-x+0.5, -y, -z+0.5'
   '-x, -y+0.5, -z+0.5'
   'y, -x+0.25, -z+0.25'
   'y+0.5, -x+0.75, -z+0.25'
   'y+0.5, -x+0.25, -z+0.75'
   'y, -x+0.75, -z+0.75'
   'x+0.25, y+0.25, -z'
   'x+0.75, y+0.75, -z'
   'x+0.75, y+0.25, -z+0.5'
   'x+0.25, y+0.75, -z+0.5'
   '-y+0.25, x, -z+0.25'
   '-y+0.75, x+0.5, -z+0.25'
   '-y+0.75, x, -z+0.75'
   '-y+0.25, x+0.5, -z+0.75'
   '-x+0.25, z, -y+0.25'
   '-x+0.75, z+0.5, -y+0.25'
   '-x+0.75, z, -y+0.75'
   '-x+0.25, z+0.5, -y+0.75'
   '-x, y+0.25, z+0.25'
   '-x+0.5, y+0.75, z+0.25'
   '-x+0.5, y+0.25, z+0.75'
   '-x, y+0.75, z+0.75'
   '-x+0.25, -z+0.25, y'
   '-x+0.75, -z+0.75, y'
   '-x+0.75, -z+0.25, y+0.5'
   '-x+0.25, -z+0.75, y+0.5'
   '-z+0.25, -y+0.25, x'
   '-z+0.75, -y+0.75, x'
   '-z+0.75, -y+0.25, x+0.5'
   '-z+0.25, -y+0.75, x+0.5'
   'x+0.25, -y, z+0.25'
   'x+0.75, -y+0.5, z+0.25'
   'x+0.75, -y, z+0.75'
   'x+0.25, -y+0.5, z+0.75'
   'z, -y+0.25, -x+0.25'
   'z+0.5, -y+0.75, -x+0.25'
   'z+0.5, -y+0.25, -x+0.75'
   'z, -y+0.75, -x+0.75'
   '-z, -x, -y'
   '-z+0.5, -x+0.5, -y'
   '-z+0.5, -x, -y+0.5'
   '-z, -x+0.5, -y+0.5'
   '-y, -z, -x'
   '-y+0.5, -z+0.5, -x'
   '-y+0.5, -z, -x+0.5'
   '-y, -z+0.5, -x+0.5'
   'y+0.25, z+0.25, -x'
   'y+0.75, z+0.75, -x'
   'y+0.75, z+0.25, -x+0.5'
   'y+0.25, z+0.75, -x+0.5'
   '-z, x+0.25, y+0.25'
   '-z+0.5, x+0.75, y+0.25'
   '-z+0.5, x+0.25, y+0.75'
   '-z, x+0.75, y+0.75'
   'y+0.25, -z, x+0.25'
   'y+0.75, -z+0.5, x+0.25'
   'y+0.75, -z, x+0.75'
   'y+0.25, -z+0.5, x+0.75'
   'z+0.25, x+0.25, -y'
   'z+0.75, x+0.75, -y'
   'z+0.75, x+0.25, -y+0.5'
   'z+0.25, x+0.75, -y+0.5'
   'z+0.25, -x, y+0.25'
   'z+0.75, -x+0.5, y+0.25'
   'z+0.75, -x, y+0.75'
   'z+0.25, -x+0.5, y+0.75'
   '-y, z+0.25, x+0.25'
   '-y+0.5, z+0.75, x+0.25'
   '-y+0.5, z+0.25, x+0.75'
   '-y, z+0.75, x+0.75'
   '-y+0.25, -x+0.25, z'
   '-y+0.75, -x+0.75, z'
   '-y+0.75, -x+0.25, z+0.5'
   '-y+0.25, -x+0.75, z+0.5'
   'y, x, z'
   'y+0.5, x+0.5, z'
   'y+0.5, x, z+0.5'
   'y, x+0.5, z+0.5'
   'x, -z+0.25, -y+0.25'
   'x+0.5, -z+0.75, -y+0.25'
   'x+0.5, -z+0.25, -y+0.75'
   'x, -z+0.75, -y+0.75'
   'x, z, y'
   'x+0.5, z+0.5, y'
   'x+0.5, z, y+0.5'
   'x, z+0.5, y+0.5'
   '-z+0.25, y, -x+0.25'
   '-z+0.75, y+0.5, -x+0.25'
   '-z+0.75, y, -x+0.75'
   '-z+0.25, y+0.5, -x+0.75'
   'z, y, x'
   'z+0.5, y+0.5, x'
   'z+0.5, y, x+0.5'
   'z, y+0.5, x+0.5'
_cell_length_a        8.10664
_cell_length_b        8.10664
_cell_length_c        8.10664
_cell_angle_alpha    90.0000
_cell_angle_beta     90.0000
_cell_angle_gamma    90.0000
loop_
_atom_site_label
_atom_site_fract_x
_atom_site_fract_y
_atom_site_fract_z
_atom_site_occupancy
_atom_site_B_iso_or_equiv
co      0.125   0.125   0.125    0.84900    0.300
al      0.125   0.125   0.125    0.15100    0.300
co      0.500   0.500   0.500    0.07550    0.307
al      0.500   0.500   0.500    0.92450    0.307
o      0.263   0.263   0.263    1.00000    0.652
_cell_measurement_wavelength    1.541874
_cell_measurement_radiation   'x-rays'
_exptl_crystal_density_diffrn    4.411000
loop_
_pd_peak_d_spacing
_pd_peak_intensity
     4.680371          0.16
     2.866130        611.16
     2.444244       1000.00
     2.340185          0.27
     2.026660        111.00
     1.859791         44.44
     1.654761        187.02
     1.560124        401.85
     1.433065        475.03
     1.370272          0.79
     1.351107          0.81
     1.281772         64.43
     1.236251         99.55
     1.222122          9.13
     1.170093         10.81
     1.135157          6.55
     1.083295         93.33
     1.055395        157.47
     1.013330         64.22
     0.990384          9.18
     0.983074          0.18
     0.955377         55.82
     0.936074        123.11
     0.929895          9.15
     0.906350         13.13
     0.889819          5.32
     0.884507          1.46
     0.864171         24.06
     0.849807        149.21
     0.827380        269.24
     0.814748         10.84
     0.794921        174.48
     0.783698        453.11
##############################################################################
###                            Comments                                    ###
##############################################################################
###   Diffraction pattern calculated by Match!. 
###   I/Ic calculated by Match!. 
###   Space group has been derived from given symmetry operations. 
##############################################################################


