##############################################################################
###               Crystal structure data exported by Match!                ###
##############################################################################
###                           Data published by:                           ###
###                                                                        ###
###               COD (Crystallography Open Database)
##############################################################################
data_4124043
_citation_journal_full    'Journal of the American Chemical Society'
_citation_journal_volume  '126'
_citation_page_first  '9769'
_citation_page_last   '9775'
_citation_year  '2004'
_citation_title  'Chemical evaluation of hypothetical uninodal zeolites'
loop_
_publ_author_name
  'Foster M.D.'
  'Friedrichs O.D.'
  'Bell R.G.'
  'Paz F.A.A.'
  'Klinowski J.'
_chemical_formula_sum  'O2 Si'
_chemical_name_common  'Silica'
_symmetry_space_group_name_H-M 'P 63/m m c'
_space_group_IT_number 194
_space_group_crystal_system 'hexagonal'
loop_
_symmetry_equiv_pos_as_xyz
   'x, y, z'
   'x-y, x, z+0.5'
   '-y, x-y, z'
   '-x, -y, z+0.5'
   '-x+y, -x, z'
   'y, -x+y, z+0.5'
   'x-y, -y, -z'
   '-x, -x+y, -z'
   'y, x, -z'
   '-y, -x, -z+0.5'
   '-x+y, y, -z+0.5'
   'x, x-y, -z+0.5'
   '-x, -y, -z'
   '-x+y, -x, -z+0.5'
   'y, -x+y, -z'
   'x, y, -z+0.5'
   'x-y, x, -z'
   '-y, x-y, -z+0.5'
   '-x+y, y, z'
   'x, x-y, z'
   '-y, -x, z'
   'y, x, z+0.5'
   'x-y, -y, z+0.5'
   '-x, -x+y, z+0.5'
_cell_length_a        9.06854
_cell_length_b        9.06854
_cell_length_c        5.18794
_cell_angle_alpha    90.0000
_cell_angle_beta     90.0000
_cell_angle_gamma   120.0000
_cell_formula_units_Z 6
loop_
_atom_site_label
_atom_site_fract_x
_atom_site_fract_y
_atom_site_fract_z
_atom_site_occupancy
_atom_site_B_iso_or_equiv
o      0.236   0.764   0.750    1.00000    1.000
o      0.500   0.000   0.500    1.00000    1.000
si      0.442   0.885   0.750    1.00000    1.000
_cell_measurement_wavelength    1.541874
_cell_measurement_radiation   'x-rays'
_exptl_crystal_density_diffrn    1.620000
loop_
_pd_peak_d_spacing
_pd_peak_intensity
     7.853586       1000.00
     4.534270          3.03
     4.328744        584.56
     3.926793        289.72
     3.131022          0.20
     2.968376          3.15
     2.617862         92.03
     2.593970         32.05
     2.576451        128.89
     2.463095         18.62
     2.337166         22.26
     2.267135          9.10
     2.251564         11.26
     2.178193          4.55
     2.164372          4.72
     2.008357         11.04
     1.963396         22.92
     1.953256          9.07
     1.842603         19.61
     1.836292         20.95
     1.801736         13.21
     1.713793          3.03
     1.707037         21.09
     1.702015         25.30
     1.688856         26.01
     1.668088         28.93
     1.627301          1.44
     1.582640          0.00
     1.570717          1.25
     1.565511          2.99
     1.511423         21.89
     1.503326         12.69
     1.494235         18.86
     1.484188          0.04
     1.479794          1.42
     1.442915          6.13
     1.429898          0.26
     1.426943         19.52
     1.410546          2.37
     1.361132          0.02
     1.354374          1.43
     1.343592          0.02
     1.308931          0.51
     1.305914         37.23
     1.297719          5.71
     1.296985          9.48
     1.291122          8.50
     1.288225         27.14
     1.279652          6.24
     1.269159          5.53
     1.257580          0.04
     1.252904         20.79
     1.247627          7.15
     1.246975          0.03
     1.239184         10.54
     1.231547          8.96
     1.222185          0.02
     1.217285          0.28
     1.197661          0.11
     1.188489          0.42
     1.168583         12.64
     1.166968          6.85
     1.162700          4.45
     1.162172          7.32
     1.155857          4.09
     1.133567          2.89
     1.131606          1.97
     1.126262          7.44
     1.125782          0.62
     1.121941          1.04
     1.114391          1.99
     1.096591          1.75
     1.093047          0.02
     1.089096          0.50
     1.087356          0.42
     1.082186          2.04
     1.065863          5.08
     1.052621          3.23
     1.043674          3.06
     1.040233          0.93
     1.038716          0.01
     1.034579         10.11
     1.034207          0.57
     1.029749          6.26
     1.028649          3.52
     1.019932          0.23
     1.017079          0.01
##############################################################################
###                            Comments                                    ###
##############################################################################
###   Diffraction pattern calculated by Match!. 
###   I/Ic calculated by Match!. 
###   Space group has been derived from given symmetry operations. 
##############################################################################


