##############################################################################
###               Crystal structure data exported by Match!                ###
##############################################################################
###                           Data published by:                           ###
###                                                                        ###
###               COD (Crystallography Open Database)
##############################################################################
data_2012671
_citation_journal_full    'Acta Crystallographica Section C'
_citation_journal_volume  '58(5)'
_citation_page_first  'i55'
_citation_page_last   'i60'
_citation_year  '2002'
_citation_title  'Copper(II) hypophosphite: the \a- and \b-forms at 270 and 100K, and the \g-form at 270K'
loop_
_publ_author_name
  'Naumov Dmitry Yu.'
  'Naumova Marina I.'
  'Kuratieva Natalia V.'
  'Boldyreva Elena V.'
  'Howard Judith A. K.'
_chemical_formula_sum  'Cu H4 O4 P2'
_chemical_name_common  'Copper(II) Hypophosphite'
_symmetry_space_group_name_H-M 'P 1 21/c 1'
_space_group_IT_number 14
_space_group_crystal_system 'monoclinic'
loop_
_symmetry_equiv_pos_as_xyz
   'x, y, z'
   '-x, y+0.5, -z+0.5'
   '-x, -y, -z'
   'x, -y+0.5, z+0.5'
_cell_length_a        7.21860
_cell_length_b        5.34620
_cell_length_c        6.25210
_cell_angle_alpha    90.0000
_cell_angle_beta     98.8352
_cell_angle_gamma    90.0000
_cell_formula_units_Z 2
loop_
_atom_site_label
_atom_site_fract_x
_atom_site_fract_y
_atom_site_fract_z
_atom_site_occupancy
_atom_site_B_iso_or_equiv
cu      0.000   0.000   0.000    1.00000    1.279
p      0.264   0.453   0.159    1.00000    1.310
h      0.404   0.483   0.272    1.00000    2.447
h      0.308   0.566   -0.001    1.00000    1.183
o      0.230   0.177   0.110    1.00000    1.483
o      0.108   0.601   0.239    1.00000    1.500
_cell_measurement_wavelength    1.541874
_cell_measurement_radiation   'x-rays'
_cell_measurement_temperature    270.000000
_exptl_crystal_density_diffrn    2.696000
_exptl_crystal_colour            'Blue'
loop_
_pd_peak_d_spacing
_pd_peak_intensity
     7.132945       1000.00
     4.277970         97.86
     4.042652        113.85
     3.679263          6.06
     3.566473         11.57
     3.374576        706.34
     3.088957          3.70
     3.008063        280.32
     2.966885          6.01
     2.818699        149.31
     2.688017         19.02
     2.674611         37.89
     2.673100        135.29
     2.621581          1.40
     2.550323        190.80
     2.535606         57.84
     2.503104         74.26
     2.453297          5.33
     2.401549          1.12
     2.377648         27.17
     2.364698          8.01
     2.290993         54.19
     2.277584         13.61
     2.175428         30.00
     2.172487         36.54
     2.145874         48.71
     2.138985         16.30
     2.081410          0.99
     2.041800          0.00
     2.021326         10.61
     2.014997          3.68
     1.998142         66.99
     1.966046          5.33
     1.964976         13.15
     1.926153         54.48
     1.921672         99.88
     1.907425          3.48
     1.895419          9.31
     1.839632         36.10
     1.803082         11.83
     1.792119         13.49
     1.783236         39.40
     1.776562         38.23
     1.761919          3.55
     1.758124         56.37
     1.728925          2.21
     1.712253          3.43
     1.695703          2.02
     1.691615          0.86
     1.687288         41.15
     1.681279          2.49
     1.670134          0.75
     1.658604         13.87
     1.657590          1.84
     1.649098         49.01
     1.634085          5.37
     1.631347          0.45
     1.622604          6.30
     1.611756         35.48
     1.598744          0.02
     1.594138          3.78
     1.584121          4.43
     1.574181         18.57
     1.569872         46.22
     1.559864          3.50
     1.556904          0.06
     1.549830          0.04
     1.544478          1.72
     1.543606          3.32
     1.533206          0.00
     1.518561         26.34
     1.504031         25.29
     1.497428          6.21
     1.486197          1.69
     1.485300          0.47
     1.483801          0.00
     1.483443         21.86
     1.468892         22.87
     1.463715         18.98
     1.457994         10.25
     1.450887          4.97
     1.447828          1.24
     1.428704          2.11
     1.426589          1.19
     1.425990          7.90
     1.419617          2.01
     1.418384         30.64
     1.411933         26.50
     1.411759          2.83
     1.409349         12.17
     1.402336          4.71
     1.400238          2.82
     1.399698          7.86
     1.396923          7.64
     1.389833          5.91
     1.378569          0.21
     1.378360          2.72
     1.378220         27.16
     1.362229          0.54
     1.351547          1.19
     1.349093          2.06
     1.347551         22.22
     1.347256          1.77
     1.344008         14.26
     1.342610          1.19
     1.337305          5.56
     1.336550          3.47
     1.334586          0.35
     1.313687          3.55
     1.310790         12.27
     1.306329          3.60
     1.304761         22.17
     1.304672          0.05
     1.303451          0.14
     1.300501         13.22
     1.292417          5.00
     1.283975          0.32
     1.283844         19.90
     1.277626          1.46
     1.275162          1.19
     1.274753          0.90
     1.267803          0.76
     1.267288          0.01
     1.262213          1.28
     1.260525          0.06
     1.258572          1.24
     1.251561          3.61
     1.251552          2.72
     1.239706          4.75
     1.238061         10.22
     1.233591          0.09
     1.233164          1.24
     1.226648          6.30
     1.226421          9.45
     1.225472          0.55
     1.224984         13.54
     1.222682         14.69
     1.221410         10.48
     1.220659          1.05
     1.217333         11.84
     1.214113          1.58
     1.213967          4.56
     1.212896          0.31
     1.209621          1.05
     1.203850          1.21
     1.201799          0.08
     1.200775          7.56
     1.196772          5.00
     1.196153          4.45
     1.194493          0.00
     1.188824          0.16
     1.182837          0.10
     1.182349          5.34
     1.173736          2.23
     1.172884         16.46
     1.171443          3.53
     1.167139          0.95
     1.165088          6.39
     1.160929          3.16
     1.160479          0.24
     1.158943          0.36
     1.149387          2.35
     1.145497          0.68
     1.145319          0.00
     1.145155          0.04
     1.144295          0.49
     1.138792          6.53
     1.138749          0.10
     1.136745          1.54
     1.132443          0.92
     1.131180         11.42
     1.131090          0.95
     1.129529          0.89
     1.125139          1.40
     1.124859          2.43
     1.122006          4.91
     1.121564          1.81
     1.121119          1.22
     1.119719          0.38
     1.118269          1.14
     1.115332          0.57
     1.113986          1.70
     1.113764          0.66
     1.113694          1.65
     1.110716          1.64
     1.104514          0.07
     1.099406          0.32
     1.096397          0.10
     1.096061          0.85
     1.093585          2.24
     1.092171         10.02
     1.090219          0.02
     1.087714          0.05
     1.086244          0.50
     1.084984          0.06
     1.082819          0.10
     1.075167          2.56
     1.074138          1.16
     1.073781          0.58
     1.073778          8.03
     1.073047          0.48
     1.072937          2.36
     1.070523          3.09
     1.069492          6.60
     1.065877          0.08
     1.064001          3.59
     1.057426          1.49
     1.056433          4.34
     1.053577          3.86
     1.048425          3.86
     1.047647          1.10
     1.046237          4.78
     1.045110          0.31
     1.044819          0.11
     1.041971          0.05
     1.040705          1.49
     1.038344          1.51
     1.037871          3.02
     1.036392          0.59
     1.033051          0.23
     1.032800          0.90
     1.032410          0.11
     1.029652          2.74
     1.029616          0.24
     1.026618          7.11
     1.024202          0.10
     1.023446          8.32
     1.022728          0.23
     1.021769          0.38
     1.020900          5.50
     1.018992          2.17
     1.017679          3.80
     1.015394          3.37
     1.015333          0.00
     1.015199          0.08
     1.014938          0.80
     1.014581         10.38
     1.014466          1.80
     1.013682          0.11
     1.012499          5.37
     1.011071          0.40
     1.010763          2.07
     1.010663          0.85
     1.010418          1.07
     1.009761          1.01
     1.007498          1.40
     1.007485          0.31
##############################################################################
###                            Comments                                    ###
##############################################################################
###   Diffraction pattern calculated by Match!. 
###   I/Ic calculated by Match!. 
##############################################################################


