##############################################################################
###               Crystal structure data exported by Match!                ###
##############################################################################
###                           Data published by:                           ###
###                                                                        ###
###               COD (Crystallography Open Database)
##############################################################################
data_1528837
_citation_journal_full    'Beitraege zur Mineralogie und Petrographie (-11,1965)'
_citation_journal_volume  '9'
_citation_page_first  '111'
_citation_page_last   '132'
_citation_year  '1963'
_citation_title  'Die Verfeinerung der Kristallstrukutren von Pb Cl2 (Cotunnit), Ba Cl2, PbS O4 (Anglesit) und Ba S O4 (Baryt)'
loop_
_publ_author_name
  'Sahl K.'
_chemical_formula_sum  'O4 Pb S'
_chemical_name_common  'Lead(II) sulfate'
_symmetry_space_group_name_H-M 'P n m a'
_space_group_IT_number 62
_space_group_crystal_system 'orthorhombic'
loop_
_symmetry_equiv_pos_as_xyz
   'x, y, z'
   '-x+0.5, -y, z+0.5'
   'x+0.5, -y+0.5, -z+0.5'
   '-x, y+0.5, -z'
   '-x, -y, -z'
   'x+0.5, y, -z+0.5'
   '-x+0.5, y+0.5, z+0.5'
   'x, -y+0.5, z'
_cell_length_a        8.51600
_cell_length_b        5.39900
_cell_length_c        6.98900
_cell_angle_alpha    90.0000
_cell_angle_beta     90.0000
_cell_angle_gamma    90.0000
_cell_formula_units_Z 4
loop_
_atom_site_label
_atom_site_fract_x
_atom_site_fract_y
_atom_site_fract_z
_atom_site_occupancy
_atom_site_B_iso_or_equiv
o      0.319   0.750   0.043    1.00000    1.000
o      0.595   0.750   0.100    1.00000    1.000
o      0.415   0.974   0.306    1.00000    1.000
pb      0.188   0.250   0.167    1.00000    1.000
s      0.437   0.750   0.186    1.00000    1.000
_cell_measurement_wavelength    1.541874
_cell_measurement_radiation   'x-rays'
_exptl_crystal_density_diffrn    6.268000
loop_
_pd_peak_d_spacing
_pd_peak_intensity
     5.402539         22.34
     4.272618        776.89
     4.258000        298.74
     3.818920        537.15
     3.636293        209.60
     3.494500        285.52
     3.343346        824.07
     3.232901        668.03
     3.016016       1000.00
     2.773662        367.55
     2.701270         22.21
     2.699500        458.82
     2.630010         95.50
     2.415772        170.87
     2.414823          0.00
     2.364400         23.98
     2.279919        198.34
     2.247100         51.60
     2.203319         64.66
     2.167505        297.54
     2.139027          1.48
     2.136309         56.98
     2.129000          2.93
     2.074585        540.85
     2.072105        475.08
     2.043765          4.40
     2.039984        374.63
     2.036603        332.84
     1.980574        237.91
     1.911400          1.48
     1.909460         43.27
     1.905538          1.81
     1.883786         71.31
     1.818146          0.11
     1.800846        198.01
     1.747250         21.56
     1.742814         92.25
     1.727051          8.30
     1.723068         32.90
     1.711596         93.72
     1.708321         78.48
     1.707426         51.01
     1.706935         17.21
     1.671673          0.08
     1.657685         78.68
     1.654772         28.54
     1.631570         41.36
     1.629450          0.00
     1.625813        198.55
     1.616450         13.36
     1.612936        123.52
     1.582127          8.48
     1.572446         64.67
     1.571593          4.68
     1.548535         17.16
     1.531030          8.57
     1.508963          0.40
     1.508008          1.25
     1.498093        200.56
     1.497715         26.20
     1.487971          7.70
     1.485229          8.09
     1.472951        103.66
     1.466811         26.65
     1.445526        138.30
     1.434489         79.90
     1.424206          0.57
     1.419333          8.72
     1.410805         43.34
     1.404698        126.04
     1.393810         96.92
     1.390941         20.55
     1.386831         13.77
     1.379343          3.38
     1.374937         64.75
     1.374412         72.32
     1.372692         55.56
     1.358190          1.14
     1.353184         49.55
     1.350656          0.16
     1.350635          0.01
     1.349750         61.59
     1.348583          0.04
     1.346958         70.79
     1.336418         19.47
     1.332410         31.82
     1.331752          5.74
     1.328071         21.64
     1.315005          1.62
     1.310258         29.58
     1.309500          1.27
     1.303122          0.42
     1.289627         54.83
     1.286653         19.35
     1.279040         15.87
     1.277654         17.74
     1.272973         33.78
     1.265389         22.53
     1.259092         19.11
     1.256273         24.35
     1.254012         13.89
     1.245552         65.27
     1.240248         20.73
     1.236457         25.42
     1.228289          0.07
     1.225175        116.71
     1.221496         11.67
     1.219620          1.87
     1.218109          3.84
     1.212098          0.01
     1.207886          0.07
     1.207411          4.93
     1.202577          7.79
     1.200841         15.54
     1.198549          1.05
     1.191666         32.45
     1.189644         49.31
     1.183759          0.26
     1.182660          0.11
     1.182200          8.90
     1.170064          9.49
     1.168466         39.07
     1.166132         39.90
     1.164833         24.62
     1.157063          7.86
     1.154087          0.17
     1.150955          9.52
     1.148936         32.80
     1.146765         36.45
     1.142026          0.01
     1.139960          0.20
     1.137292         19.28
     1.128591          0.42
     1.126295          0.50
     1.125092         74.80
     1.123772         15.54
     1.123550         13.79
     1.114449         26.29
     1.111450          0.83
     1.105748          0.00
     1.103933         24.52
     1.101659          2.87
     1.100545         28.97
     1.099984         44.35
     1.095433          0.64
     1.094773          8.38
     1.092567         17.54
     1.083753          0.00
     1.080508          4.53
     1.080253         14.73
     1.080055         62.63
     1.079417          8.39
     1.078386          3.89
     1.077634          0.01
     1.072323         55.87
     1.069514         31.42
     1.068603         28.41
     1.068155          7.65
     1.067139         11.81
     1.064500         22.69
     1.061762          9.96
     1.061178          1.35
     1.059850         37.86
     1.059498          5.28
     1.058858         11.03
     1.057498         45.34
     1.057169         43.34
     1.056788          0.02
     1.052363          0.02
     1.046669         21.17
     1.045935         12.32
     1.044393          0.00
     1.037293         25.61
     1.036053          5.92
     1.035126         31.19
     1.032924         28.77
     1.028870          9.34
     1.024182         10.22
     1.023946          1.32
     1.021883          0.01
     1.019992          3.83
     1.018302          9.62
     1.012474          3.66
     1.009618         26.64
##############################################################################
###                            Comments                                    ###
##############################################################################
###   Diffraction pattern calculated by Match!. 
###   I/Ic calculated by Match!. 
###   Space group has been derived from given symmetry operations. 
##############################################################################


