##############################################################################
###               Crystal structure data exported by Match!                ###
##############################################################################
###                           Data published by:                           ###
###                                                                        ###
###               COD (Crystallography Open Database)
##############################################################################
data_2300450
_citation_journal_full    'Journal of Applied Crystallography'
_citation_journal_volume  '47(2)'
_citation_page_first  '659'
_citation_page_last   '667'
_citation_year  '2014'
_citation_title  'Simultaneous determination of several crystal structures from powdermixtures: the combination of powder X-ray diffraction, band-targetentropy minimization and Rietveld methods'
loop_
_publ_author_name
  'Schreyer Martin'
  'Guo Liangfeng'
  'Thirunahari Satyanarayana'
  'Gao Feng'
  'Garland Marc'
_chemical_formula_sum  'O Zn'
_chemical_name_mineral  'Zincite'
_chemical_name_common  'Zinc oxide'
_symmetry_space_group_name_H-M 'P 63 m c'
_space_group_IT_number 186
_space_group_crystal_system 'hexagonal'
loop_
_symmetry_equiv_pos_as_xyz
   'x, y, z'
   'x-y, x, z+0.5'
   '-y, x-y, z'
   '-x, -y, z+0.5'
   '-x+y, -x, z'
   'y, -x+y, z+0.5'
   '-x+y, y, z'
   'x, x-y, z'
   '-y, -x, z'
   'y, x, z+0.5'
   'x-y, -y, z+0.5'
   '-x, -x+y, z+0.5'
_cell_length_a        3.24931
_cell_length_b        3.24931
_cell_length_c        5.20571
_cell_angle_alpha    90.0000
_cell_angle_beta     90.0000
_cell_angle_gamma   120.0000
_cell_formula_units_Z 2
loop_
_atom_site_label
_atom_site_fract_x
_atom_site_fract_y
_atom_site_fract_z
_atom_site_occupancy
_atom_site_B_iso_or_equiv
zn      0.333   0.667   0.500    1.00000    0.491
o      0.667   0.333   0.379    1.00000    0.459
_cell_measurement_wavelength    1.541874
_cell_measurement_radiation   'x-rays'
_cell_measurement_temperature    298.000000
_exptl_crystal_density_diffrn    5.678000
loop_
_pd_peak_d_spacing
_pd_peak_intensity
     2.813983        515.39
     2.602854        386.47
     2.475462       1000.00
     1.910781        218.42
     1.624654        330.27
     1.476995        309.36
     1.406992         46.74
     1.378211        259.19
     1.358255        134.82
     1.301427         22.34
     1.237731         42.55
     1.181217         23.59
     1.092876         97.81
     1.063586         32.81
     1.042059        108.63
     1.015724         60.67
##############################################################################
###                            Comments                                    ###
##############################################################################
###   Diffraction pattern calculated by Match!. 
###   I/Ic calculated by Match!. 
###   Space group has been derived from given symmetry operations. 
##############################################################################


