##############################################################################
###               Crystal structure data exported by Match!                ###
##############################################################################
###                           Data published by:                           ###
###                                                                        ###
###               COD (Crystallography Open Database)
##############################################################################
data_9013581
_citation_journal_full    'American Mineralogist'
_citation_journal_volume  '94'
_citation_page_first  '451'
_citation_page_last   '460'
_citation_year  '2009'
_citation_title  'Molecular conformation and anion configuration variations for As4S4 andAs4Se4 in an anion-substituted solid solution Locality: synthetic Note:S1Se1-16'
loop_
_publ_author_name
  'Kyono A.'
_chemical_formula_sum  'As S0.87 Se0.13'
_chemical_name_mineral  'Realgar'
_symmetry_space_group_name_H-M 'P 1 21/n 1'
_space_group_IT_number 14
_space_group_crystal_system 'monoclinic'
loop_
_symmetry_equiv_pos_as_xyz
   'x, y, z'
   '-x+0.5, y+0.5, -z+0.5'
   '-x, -y, -z'
   'x+0.5, -y+0.5, z+0.5'
_cell_length_a        9.36160
_cell_length_b       13.58330
_cell_length_c        6.60800
_cell_angle_alpha    90.0000
_cell_angle_beta    106.3780
_cell_angle_gamma    90.0000
loop_
_atom_site_label
_atom_site_fract_x
_atom_site_fract_y
_atom_site_fract_z
_atom_site_occupancy
_atom_site_B_iso_or_equiv
as      0.121   -0.021   0.763    1.00000    2.068
as      0.424   0.139   0.857    1.00000    2.021
as      0.321   0.127   0.178    1.00000    2.037
as      0.040   0.161   0.713    1.00000    2.202
s      0.345   -0.007   0.699    0.84600    2.526
se      0.345   -0.007   0.699    0.15400    2.526
s      0.214   -0.024   0.119    0.83500    2.376
se      0.214   -0.024   0.119    0.16500    2.376
s      0.239   0.227   0.639    0.92200    2.471
se      0.239   0.227   0.639    0.07800    2.471
s      0.106   0.212   0.052    0.87700    2.637
se      0.106   0.212   0.052    0.12300    2.637
_cell_measurement_wavelength    1.541874
_cell_measurement_radiation   'x-rays'
_exptl_crystal_density_diffrn    3.727000
loop_
_pd_peak_d_spacing
_pd_peak_intensity
     7.491984         72.00
     6.791650         74.38
     6.044346        394.68
     5.744916        483.49
     5.522287        262.57
     5.417252       1000.00
     4.634453        106.09
     4.603893         33.05
     4.515182         12.31
     4.490864          5.42
     4.360250          0.00
     4.263870         31.74
     4.079909        193.74
     4.043091         23.32
     3.810842         35.29
     3.745992         91.12
     3.684589         54.38
     3.623793          5.81
     3.619405         84.54
     3.395825          0.02
     3.228193         18.03
     3.202134         29.69
     3.188487        337.94
     3.176380        303.63
     3.169931        430.78
     3.167182         16.76
     3.109330         12.53
     3.086985         80.84
     3.060926        368.35
     3.022173          3.11
     2.993456        192.51
     2.986048         82.54
     2.964531        234.44
     2.960580          0.07
     2.950038        166.78
     2.936732        507.53
     2.923733         17.95
     2.872458        112.11
     2.790603        147.19
     2.761144         18.59
     2.739539        134.84
     2.732841        459.59
     2.708626        119.40
     2.700327        171.28
     2.664204          0.48
     2.659594         70.90
     2.643971          8.72
     2.600317        171.35
     2.596776         35.23
     2.553210         11.72
     2.535827         29.41
     2.523138        143.27
     2.513661          8.57
     2.497328        129.31
     2.497065          1.39
     2.477886        164.42
     2.453264         92.04
     2.414205         58.40
     2.401886         92.05
     2.364758         73.28
     2.353756          1.39
     2.350576         15.90
     2.339695          0.03
     2.324445          9.97
     2.317227          3.92
     2.307349         32.33
     2.301946         14.11
     2.300098          0.94
     2.293236          0.07
     2.273608          0.03
     2.269586          1.35
     2.263883        144.54
     2.257591          0.59
     2.245736         50.61
     2.245432         21.51
     2.233624         99.02
     2.215367         23.83
     2.207127         22.90
     2.200063        131.20
     2.195224        102.35
     2.180125         35.28
     2.171761         67.44
     2.156991          1.93
     2.139611          3.62
     2.138709        100.73
     2.134452        123.57
     2.132031          5.70
     2.131935         48.13
     2.120056         43.75
     2.112682         39.95
     2.096094          0.12
     2.092989          0.41
     2.088166         26.81
     2.086198          0.80
     2.074444          1.30
     2.062778          0.03
     2.059533         51.00
     2.051977          4.79
     2.048178         15.85
     2.039955         44.43
     2.031828          3.84
     2.031553          4.97
     2.021546         24.30
     2.020373          0.20
     2.017859          1.36
     2.014782         25.03
     2.011862         19.94
     2.011644          2.73
     2.000915         11.51
     1.992977         11.94
     1.988609         49.19
     1.978827         21.57
     1.950481          7.68
     1.938837          2.87
     1.934493         37.27
     1.933826          0.51
     1.931580          5.72
     1.930770          0.45
     1.923369          3.10
     1.919383         19.27
     1.914972          4.46
     1.905421          9.78
     1.903731          4.92
     1.896711          9.90
     1.874787         21.03
     1.872996          7.99
     1.872318         18.09
     1.866126          2.39
     1.865913         50.96
     1.864357        101.30
     1.858921        134.29
     1.855503          9.07
     1.854781         26.56
     1.850003         15.65
     1.847594          2.89
     1.846422          5.05
     1.842295         82.24
     1.840762          4.27
     1.823329          0.09
     1.820738          0.08
     1.820146        120.48
     1.811897          4.84
     1.809702         18.81
     1.805751         15.54
     1.804985        127.98
     1.799465         10.63
     1.794223         32.28
     1.791411         80.16
     1.788130          5.20
     1.782305         26.25
     1.781295          0.38
     1.780840          3.00
     1.779485          2.52
     1.770267         51.57
     1.769752         18.22
     1.767132         13.47
     1.756243         18.10
     1.753886          0.89
     1.749180         20.92
     1.736628         18.31
     1.735371          6.91
     1.732753         57.66
     1.730756          3.97
     1.730221         23.44
     1.719186         15.41
     1.709723        123.47
     1.698151         64.26
     1.697912         48.88
     1.691402          0.80
     1.691340          6.35
     1.685058         51.85
     1.683731        132.07
     1.680446         34.41
     1.679308         96.09
     1.673136          3.52
     1.672063          5.90
     1.669735          3.78
     1.668618         28.90
     1.668363         18.10
     1.668030         32.85
     1.667026          0.06
     1.663735         32.08
     1.655004          4.86
     1.647500         29.74
     1.640112          2.79
     1.639613         63.09
     1.638891         18.91
     1.635514          4.81
     1.634642          5.86
     1.632861         19.27
     1.630231          7.11
     1.628477          8.89
     1.628359         18.82
     1.624963         38.92
     1.618598          0.14
     1.618297          0.01
     1.616899          0.83
     1.614096         11.74
     1.613119          5.32
     1.611106          0.81
     1.601863         43.43
     1.601067          2.36
     1.601028         17.17
     1.599891         13.08
     1.596110          0.02
     1.594244          6.00
     1.593029          1.54
     1.588684          0.86
     1.588190          8.03
     1.587868          7.15
     1.586906          1.64
     1.586512          5.78
     1.584966          0.30
     1.584457         17.86
     1.583591         55.32
     1.578145          0.00
     1.578128          0.20
     1.577760         29.97
     1.574285          6.19
     1.569457         17.18
     1.569411          0.00
     1.567603          4.99
     1.563279         16.03
     1.557056          7.54
     1.554665         23.30
     1.548330          0.01
     1.548196          0.00
     1.548141         26.74
     1.544818          1.68
     1.543712          2.19
     1.543697          8.27
     1.543492          5.77
     1.541645          6.68
     1.534631          4.74
     1.532377          4.59
     1.530463          0.45
     1.524929          0.02
     1.521930         15.90
     1.520840         23.10
     1.519560          5.48
     1.519007         49.24
     1.517877          2.22
     1.511086         45.17
     1.509440          0.14
     1.509310          2.98
     1.508296          5.13
     1.505603         45.21
     1.505061         20.99
     1.501822         26.56
     1.498397          0.89
     1.497589          6.16
     1.496955          1.14
     1.496893          5.54
     1.496728         19.86
     1.495958          5.36
     1.493024          1.67
     1.492082          3.05
     1.488389          4.63
     1.487946          0.30
     1.484778          5.86
     1.483656         14.73
     1.482266         16.25
     1.481682         32.73
     1.480290          0.26
     1.478330          0.16
     1.477724          2.97
     1.476933          6.98
     1.475019         10.55
     1.473634         39.99
     1.472600          1.60
     1.468366         67.68
     1.468225          2.03
     1.468194          0.93
     1.465496          0.05
     1.464297          1.77
     1.461866          6.11
     1.461111          8.04
     1.457077         47.27
     1.455925         10.12
     1.455593         17.56
     1.455289          6.88
     1.453417          0.28
     1.449874         14.90
     1.447137         21.14
     1.445495          6.33
     1.443902         14.18
     1.442811          0.87
     1.437106          0.80
     1.436229          7.11
     1.434159          2.03
     1.433369          1.87
     1.430626         40.19
     1.429317         18.95
     1.423257          1.11
     1.421290          0.05
     1.418015          0.61
     1.416439          3.45
     1.416309          0.07
     1.416295          8.28
     1.415828         12.09
     1.408700         16.10
     1.407175          1.15
     1.406506         11.40
     1.405320          3.79
     1.398458          0.30
     1.397653          2.64
     1.396752          3.22
     1.396144         11.07
     1.395388          5.26
     1.395302          2.09
     1.394992         10.96
     1.393039          5.59
     1.387025          0.21
     1.385745          0.09
     1.380572          1.48
     1.378443          0.13
     1.377661          0.09
     1.376157          0.81
     1.375679          0.12
     1.373433         27.08
     1.372994          2.11
     1.372161         27.64
     1.371569          1.57
     1.371542          2.76
     1.370629          7.91
     1.369770          0.60
     1.369374          0.40
     1.369006          5.23
     1.366421          4.75
     1.365926          3.30
     1.365797          0.41
     1.364878          0.86
     1.362687          2.54
     1.359970          2.01
     1.358330          1.32
     1.354313          5.52
     1.353650          0.17
     1.352693          0.24
     1.351834          0.15
     1.350246         11.57
     1.350164          2.75
     1.347697          0.23
     1.347379          1.10
     1.345667          2.90
     1.344164          2.13
     1.343058          0.56
     1.339620          2.33
     1.337890          0.39
     1.336176          0.01
     1.335176          1.32
     1.333423         13.64
     1.333008          3.34
     1.332794          5.18
     1.332102          0.59
     1.329797         29.46
     1.329243          0.01
     1.328187         12.44
     1.326424          0.02
     1.325719          4.71
     1.325277          3.97
     1.323684          0.01
     1.323619          4.78
     1.321986          0.27
     1.320549         11.10
     1.320268          2.56
     1.318219          0.37
     1.318001          1.18
     1.317669          0.17
     1.315388         10.47
     1.314628          1.13
     1.313818         19.69
     1.313730          1.11
     1.312641          0.04
     1.311086          0.05
     1.307849          0.63
     1.307594          2.28
     1.307448          0.00
     1.306795          0.08
     1.306430          4.77
     1.302809          4.42
     1.302029          0.00
     1.301947          2.71
     1.301577          2.35
     1.301433          0.03
     1.301151          1.43
     1.300159          4.80
     1.298388          3.16
     1.298354          1.40
     1.297267          8.62
     1.296220          0.79
     1.294653          0.01
     1.294621          3.78
     1.292617          0.33
     1.285474          4.13
     1.284013          1.88
     1.283914          0.10
     1.283875          1.97
     1.283711          4.49
     1.280682         10.06
     1.278552          1.10
     1.278216         13.15
     1.277417          0.14
     1.277342          0.64
     1.276605          0.00
     1.273037          2.64
     1.272802          0.04
     1.272698          0.58
     1.270281          1.18
     1.268660          4.38
     1.267914          2.16
     1.267337          1.72
     1.266595          4.71
     1.262490          0.15
     1.262484          1.12
     1.262221         10.20
     1.262161          0.88
     1.262074          0.88
     1.261569          0.04
     1.261124          0.25
     1.260801          9.03
     1.257755          0.05
     1.256831          8.35
     1.256256          1.71
     1.256126          0.21
     1.256001          0.55
     1.255902          0.80
     1.255808          0.11
     1.253670          0.43
     1.253505          1.26
     1.252600          0.03
     1.248664          0.07
     1.248532          1.25
     1.247414          0.38
     1.246436          1.21
     1.246183          2.36
     1.246160          2.46
     1.245128          1.41
     1.244955          0.43
     1.244767          8.82
     1.244558          1.31
     1.241571          1.90
     1.240659          0.71
     1.240470          1.18
     1.240196         15.32
     1.240082          3.47
     1.239554          0.48
     1.238943          0.00
     1.237413          0.31
     1.236973          1.10
     1.235617          0.32
     1.235213          9.33
     1.234492          2.64
     1.234320          0.08
     1.233937          7.65
     1.233486          1.27
     1.233128          0.87
     1.231615          0.02
     1.228700          6.86
     1.228196          0.62
     1.227530          0.01
     1.226632          5.29
     1.225309          2.42
     1.223338          3.46
     1.221661          0.12
     1.220998          0.00
     1.220760         10.97
     1.220256          3.55
     1.220137         16.66
     1.219768          0.11
     1.218327          0.91
     1.215729          1.85
     1.215131          0.30
     1.215106          0.46
     1.212863          7.83
     1.212068          3.73
     1.210571          0.33
     1.209855          3.42
     1.209215          0.02
     1.208869          0.03
     1.207931          9.76
     1.207103          0.98
     1.206468          1.32
     1.205792          0.69
     1.204452          0.01
     1.204110          6.67
     1.203696          7.03
     1.201682          4.07
     1.200943          1.69
     1.200690          2.34
     1.200280          0.10
     1.196552          3.32
     1.193859          0.12
     1.193661          6.21
     1.192689          4.77
     1.192234          0.08
     1.192193          0.02
     1.192027          1.49
     1.191787          1.25
     1.190973         10.27
     1.190956          2.23
##############################################################################
###                            Comments                                    ###
##############################################################################
###   Diffraction pattern calculated by Match!. 
###   I/Ic calculated by Match!. 
##############################################################################


