##############################################################################
###               Crystal structure data exported by Match!                ###
##############################################################################
###                           Data published by:                           ###
###                                                                        ###
###               COD (Crystallography Open Database)
##############################################################################
data_9000100
_citation_journal_full    'American Mineralogist'
_citation_journal_volume  '46'
_citation_page_first  '1283'
_citation_page_last   '1316'
_citation_year  '1961'
_citation_title  'Crystallographic tables for the rhombohedral carbonates'
loop_
_publ_author_name
  'Graf D. L.'
_chemical_formula_sum  'C Cd O3'
_chemical_name_mineral  'Otavite'
_symmetry_space_group_name_H-M 'R -3 c'
_space_group_IT_number 167
_space_group_crystal_system 'trigonal (hexagonal axes)'
loop_
_symmetry_equiv_pos_as_xyz
   'x, y, z'
   'x+0.66667, y+0.33333, z+0.33333'
   'x+0.33333, y+0.66667, z+0.66667'
   '-y, x-y, z'
   '-y+0.66667, x-y+0.33333, z+0.33333'
   '-y+0.33333, x-y+0.66667, z+0.66667'
   '-x+y, -x, z'
   '-x+y+0.66667, -x+0.33333, z+0.33333'
   '-x+y+0.33333, -x+0.66667, z+0.66667'
   'x-y, -y, -z+0.5'
   'x-y+0.66667, -y+0.33333, -z+0.83333'
   'x-y+0.33333, -y+0.66667, -z+0.16667'
   '-x, -x+y, -z+0.5'
   '-x+0.66667, -x+y+0.33333, -z+0.83333'
   '-x+0.33333, -x+y+0.66667, -z+0.16667'
   'y, x, -z+0.5'
   'y+0.66667, x+0.33333, -z+0.83333'
   'y+0.33333, x+0.66667, -z+0.16667'
   '-x, -y, -z'
   '-x+0.66667, -y+0.33333, -z+0.33333'
   '-x+0.33333, -y+0.66667, -z+0.66667'
   'y, -x+y, -z'
   'y+0.66667, -x+y+0.33333, -z+0.33333'
   'y+0.33333, -x+y+0.66667, -z+0.66667'
   'x-y, x, -z'
   'x-y+0.66667, x+0.33333, -z+0.33333'
   'x-y+0.33333, x+0.66667, -z+0.66667'
   '-x+y, y, z+0.5'
   '-x+y+0.66667, y+0.33333, z+0.83333'
   '-x+y+0.33333, y+0.66667, z+0.16667'
   'x, x-y, z+0.5'
   'x+0.66667, x-y+0.33333, z+0.83333'
   'x+0.33333, x-y+0.66667, z+0.16667'
   '-y, -x, z+0.5'
   '-y+0.66667, -x+0.33333, z+0.83333'
   '-y+0.33333, -x+0.66667, z+0.16667'
_cell_length_a        4.92040
_cell_length_b        4.92040
_cell_length_c       16.29800
_cell_angle_alpha    90.0000
_cell_angle_beta     90.0000
_cell_angle_gamma   120.0000
loop_
_atom_site_label
_atom_site_fract_x
_atom_site_fract_y
_atom_site_fract_z
_atom_site_occupancy
_atom_site_B_iso_or_equiv
cd      0.000   0.000   0.000    1.00000    1.000
c      0.000   0.000   0.250    1.00000    1.000
o      0.261   0.000   0.250    1.00000    1.000
_cell_measurement_wavelength    1.541874
_cell_measurement_radiation   'x-rays'
_exptl_crystal_density_diffrn    5.027000
loop_
_pd_peak_d_spacing
_pd_peak_intensity
     3.776093        742.33
     2.944895       1000.00
     2.716333         37.44
     2.460200        337.34
     2.241110         51.92
     2.061306        244.31
     1.888047        148.49
     1.837992        210.46
     1.823469        329.55
     1.602772          8.73
     1.580015        178.88
     1.522256         50.04
     1.497809        129.96
     1.472448         58.91
     1.458402          7.44
     1.443935          5.19
     1.420397         84.35
     1.358167         30.39
     1.324554          3.35
     1.294492         41.19
     1.263445         66.68
     1.258698         41.79
     1.230100         29.01
     1.199730          0.20
     1.189014         49.95
     1.178747          0.04
     1.169605         34.91
     1.145587         49.93
     1.135058         64.80
     1.122989         16.14
     1.120555         47.77
     1.111066          0.03
     1.090415          1.33
     1.056310          7.87
     1.053848          0.02
     1.030653         31.73
     1.022279         47.20
     1.021593         18.01
     1.017543          0.10
##############################################################################
###                            Comments                                    ###
##############################################################################
###   Diffraction pattern calculated by Match!. 
###   I/Ic calculated by Match!. 
##############################################################################


