##############################################################################
###               Crystal structure data exported by Match!                ###
##############################################################################
###                           Data published by:                           ###
###                                                                        ###
###               COD (Crystallography Open Database)
##############################################################################
data_1536389
_citation_journal_full    'Zhurnal Neorganicheskoi Khimii'
_citation_journal_volume  '38'
_citation_page_first  '44'
_citation_page_last   '50'
_citation_year  '1993'
_citation_title  'On the structure of alpha-Si O2 crystals doped with Fe3+'
loop_
_publ_author_name
  'Pakhomov V.I.'
  'Goryunov A.V.'
  'Pakhomov P.V.'
  'Chibiskova N.T.'
_chemical_formula_sum  'O2 Si'
_chemical_name_common  'Silica'
_symmetry_space_group_name_H-M 'P 1'
_space_group_IT_number 1
_space_group_crystal_system 'triclinic'
loop_
_symmetry_equiv_pos_as_xyz
   'x, y, z'
_cell_length_a        4.91600
_cell_length_b        4.91700
_cell_length_c        5.40700
_cell_angle_alpha    90.0000
_cell_angle_beta     90.0000
_cell_angle_gamma   120.0000
_cell_formula_units_Z 3
loop_
_atom_site_label
_atom_site_fract_x
_atom_site_fract_y
_atom_site_fract_z
_atom_site_occupancy
_atom_site_B_iso_or_equiv
si      0.470   0.000   0.333    1.00000    1.000
si      0.000   0.470   0.667    1.00000    1.000
o      0.853   0.586   0.881    1.00000    1.000
o      0.267   0.414   0.786    1.00000    1.000
o      0.734   0.146   0.549    1.00000    1.000
o      0.414   0.268   0.216    1.00000    1.000
o      0.148   0.733   0.453    1.00000    1.000
si      0.531   0.530   -0.000    1.00000    1.000
o      0.586   0.854   0.118    1.00000    1.000
_cell_measurement_wavelength    1.541874
_cell_measurement_radiation   'x-rays'
_exptl_crystal_density_diffrn    2.644000
loop_
_pd_peak_d_spacing
_pd_peak_intensity
     5.407000          0.02
     4.258247        201.35
     4.257814        201.04
     4.257381        201.11
     3.345363        995.19
     3.345153        996.29
     3.344943       1000.00
     2.703500          0.00
     2.458500         71.85
     2.458250         70.81
     2.458000         71.14
     2.282365         71.69
     2.282299         71.14
     2.282232         71.55
     2.238015         31.59
     2.237827         31.96
     2.237638         32.33
     2.129123         50.26
     2.128907         50.51
     2.128690         49.58
     1.981068         31.98
     1.980893         32.19
     1.980719         32.11
     1.818884        120.56
     1.818783        121.86
     1.818681        122.40
     1.802333          8.39
     1.672681         37.62
     1.672576         37.38
     1.672471         38.11
     1.659783         16.15
     1.659757         16.26
     1.659731         16.31
     1.609489          1.22
     1.609419          1.17
     1.609372          1.28
     1.609232          1.28
     1.609185          1.30
     1.609115          1.26
     1.542598         43.30
     1.542536         43.05
     1.542495         43.00
     1.542371         42.82
     1.542330         43.40
     1.542269         42.61
     1.453570         16.19
     1.453519         16.30
     1.453467         16.01
     1.419416          4.04
     1.419271          4.12
     1.419127          4.19
     1.382964         26.29
     1.382919         26.10
     1.382889         26.01
     1.382800         25.94
     1.382771         26.14
     1.382726         25.96
     1.375632         62.13
     1.375574         62.12
     1.375515         62.70
     1.372898         39.55
     1.372767         39.37
     1.372637         39.07
     1.351750          0.00
     1.288392         20.66
     1.288380         20.63
     1.288368         20.74
     1.256733         25.64
     1.256632         25.63
     1.256532         25.62
     1.229250         13.24
     1.229125         13.30
     1.229000         13.35
     1.200492         13.93
     1.200463         13.80
     1.200443         13.62
     1.200385         13.70
     1.200366         13.64
     1.200336         13.63
     1.198664          7.46
     1.198548          7.46
     1.198432          7.34
     1.184511         22.07
     1.184483         22.25
     1.184455         22.38
     1.181044         12.64
     1.180979         12.79
     1.180970         12.43
     1.180840         12.81
     1.180831         12.72
     1.180767         12.44
     1.153839          8.05
     1.153779          8.07
     1.153770          8.16
     1.153649          8.16
     1.153641          8.26
     1.153580          8.28
     1.141183          2.53
     1.141149          2.54
     1.141116          2.54
     1.119008          0.33
     1.118913          0.35
     1.118819          0.36
     1.115121          2.63
     1.115051          2.64
     1.114981          2.71
     1.082277         13.27
     1.082227         13.01
     1.082220         13.10
     1.082121         13.07
     1.082114         12.94
     1.082064         12.94
     1.081400          0.00
     1.064562          4.31
     1.064453          4.37
     1.064345          4.39
     1.048130         13.42
     1.048123         13.44
     1.048117         13.18
     1.044509          9.72
     1.044407          9.58
     1.044305          9.77
     1.035112          6.85
     1.035093          6.92
     1.035080          6.93
     1.035043          6.92
     1.035031          6.78
     1.035012          6.86
     1.015539         11.85
     1.015468         11.66
     1.015398         11.72
##############################################################################
###                            Comments                                    ###
##############################################################################
###   Diffraction pattern calculated by Match!. 
###   I/Ic calculated by Match!. 
###   Space group has been derived from given symmetry operations. 
##############################################################################


