##############################################################################
###               Crystal structure data exported by Match!                ###
##############################################################################
###                           Data published by:                           ###
###                                                                        ###
###               COD (Crystallography Open Database)
##############################################################################
data_9010440
_citation_journal_full    'American Mineralogist'
_citation_journal_volume  '93'
_citation_page_first  '853'
_citation_page_last   '862'
_citation_year  '2008'
_citation_title  'Crystal chemistry of the natrojarosite-jarosite and natrojarosite-hydroniumjarosite solid-solution: A synthetic study with full Fe site occupancyLocality: syntheticSample: L'
loop_
_publ_author_name
  'Basciano L. C.'
  'Peterson R. C.'
_chemical_formula_sum  'Fe3 H6 K0.6 Na0.4 O14 S2'
_chemical_name_mineral  'Jarosite'
_symmetry_space_group_name_H-M 'R -3 m'
_space_group_IT_number 166
_space_group_crystal_system 'trigonal (hexagonal axes)'
loop_
_symmetry_equiv_pos_as_xyz
   'x, y, z'
   'x+0.66667, y+0.33333, z+0.33333'
   'x+0.33333, y+0.66667, z+0.66667'
   '-y, x-y, z'
   '-y+0.66667, x-y+0.33333, z+0.33333'
   '-y+0.33333, x-y+0.66667, z+0.66667'
   '-x+y, -x, z'
   '-x+y+0.66667, -x+0.33333, z+0.33333'
   '-x+y+0.33333, -x+0.66667, z+0.66667'
   'x-y, -y, -z'
   'x-y+0.66667, -y+0.33333, -z+0.33333'
   'x-y+0.33333, -y+0.66667, -z+0.66667'
   '-x, -x+y, -z'
   '-x+0.66667, -x+y+0.33333, -z+0.33333'
   '-x+0.33333, -x+y+0.66667, -z+0.66667'
   'y, x, -z'
   'y+0.66667, x+0.33333, -z+0.33333'
   'y+0.33333, x+0.66667, -z+0.66667'
   '-x, -y, -z'
   '-x+0.66667, -y+0.33333, -z+0.33333'
   '-x+0.33333, -y+0.66667, -z+0.66667'
   'y, -x+y, -z'
   'y+0.66667, -x+y+0.33333, -z+0.33333'
   'y+0.33333, -x+y+0.66667, -z+0.66667'
   'x-y, x, -z'
   'x-y+0.66667, x+0.33333, -z+0.33333'
   'x-y+0.33333, x+0.66667, -z+0.66667'
   '-x+y, y, z'
   '-x+y+0.66667, y+0.33333, z+0.33333'
   '-x+y+0.33333, y+0.66667, z+0.66667'
   'x, x-y, z'
   'x+0.66667, x-y+0.33333, z+0.33333'
   'x+0.33333, x-y+0.66667, z+0.66667'
   '-y, -x, z'
   '-y+0.66667, -x+0.33333, z+0.33333'
   '-y+0.33333, -x+0.66667, z+0.66667'
_cell_length_a        7.30520
_cell_length_b        7.30520
_cell_length_c       16.97060
_cell_angle_alpha    90.0000
_cell_angle_beta     90.0000
_cell_angle_gamma   120.0000
loop_
_atom_site_label
_atom_site_fract_x
_atom_site_fract_y
_atom_site_fract_z
_atom_site_occupancy
_atom_site_B_iso_or_equiv
k      0.000   0.000   0.000    0.60000    1.000
na      0.000   0.000   0.000    0.40000    1.000
fe      0.167   -0.167   -0.167    1.00000    2.600
s      0.000   0.000   0.310    1.00000    1.500
o      0.000   0.000   0.395    1.00000    2.400
o      0.224   -0.224   -0.054    1.00000    2.199
o      0.128   -0.128   0.133    1.00000    0.300
h      0.161   -0.161   0.172    1.00000    1.999
_cell_measurement_wavelength    1.541874
_cell_measurement_radiation   'x-rays'
_exptl_crystal_density_diffrn    3.140000
loop_
_pd_peak_d_spacing
_pd_peak_intensity
     5.927970        265.65
     5.656867        275.76
     5.071926        652.36
     3.652600         89.01
     3.523661         33.76
     3.109685        630.61
     3.068524       1000.00
     2.990878         12.07
     2.963985        107.51
     2.828433        190.95
     2.535963        182.90
     2.367799         11.13
     2.314071          8.92
     2.301547         19.21
     2.263841        280.22
     2.236327          1.23
     2.108830          2.12
     2.083115          0.08
     2.011271          2.17
     1.975990        303.07
     1.954788          7.46
     1.924226         73.74
     1.885622         41.18
     1.826300        289.49
     1.761830         38.45
     1.745348          2.36
     1.737970         41.68
     1.718299         30.67
     1.702436         20.42
     1.690642          0.35
     1.675526         20.02
     1.639112          1.64
     1.621453         24.75
     1.586873         38.18
     1.574798         26.91
     1.558687         34.89
     1.554843         46.68
     1.534262        138.68
     1.498858          0.32
     1.495439        157.84
     1.481992         45.10
     1.446117         18.42
     1.433612         16.75
     1.430619         19.40
     1.421425         21.21
     1.414217          1.02
     1.405649         28.10
     1.386649         21.34
     1.383941          0.00
     1.380553          7.60
     1.373262          8.30
     1.352064          2.10
     1.341190         69.25
     1.334502          1.01
     1.324656         13.93
     1.318816          0.56
     1.311860         16.21
     1.296375          0.38
     1.278497         11.11
     1.267981          2.04
     1.261796          0.13
     1.251461          1.77
     1.245293         49.29
     1.240654          2.70
     1.219855         12.62
     1.217533         19.90
     1.212524          0.51
     1.206711          1.20
     1.197857          0.01
     1.192638         14.06
     1.190529          0.09
     1.190276         14.71
     1.185594          0.00
     1.183900          7.08
     1.174554          6.50
     1.158617          0.06
     1.157035         20.50
     1.150774         20.43
     1.145801         29.45
     1.133733          0.19
     1.131921          4.76
     1.131373          0.03
     1.127676         23.98
     1.126218          5.58
     1.121716          1.99
     1.118323          0.05
     1.118164         11.51
     1.113915          9.36
     1.104388          9.54
     1.103018          0.56
     1.097589          0.52
     1.086675          3.04
     1.081194          8.21
     1.080718          1.05
     1.077494          7.13
     1.072291          0.04
     1.057123          0.67
     1.054415         11.11
     1.047362         14.18
     1.046063          0.31
     1.041557          8.35
     1.038121          0.01
     1.036562          3.24
     1.032342          1.22
     1.028872          2.27
     1.022841          0.80
     1.014385          0.00
     1.013049          1.01
     1.010158          0.37
     1.006789          0.10
##############################################################################
###                            Comments                                    ###
##############################################################################
###   Diffraction pattern calculated by Match!. 
###   I/Ic calculated by Match!. 
##############################################################################


