##############################################################################
###               Crystal structure data exported by Match!                ###
##############################################################################
###                           Data published by:                           ###
###                                                                        ###
###               COD (Crystallography Open Database)
##############################################################################
data_9012336
_citation_journal_full    'Zeitschrift fur Anorganische und Allgemeine Chemie'
_citation_journal_volume  '454'
_citation_page_first  '134'
_citation_page_last   '144'
_citation_year  '1979'
_citation_title  'Cobalthydrogenarsenat-monohydrat. Darstellung und kristallstruktur Locality: synthetic'
loop_
_publ_author_name
  'Zettler F.'
  'Riffel H.'
  'Hess H.'
  'Keller P.'
_chemical_formula_sum  'As Co H3 O5'
_chemical_name_mineral  'Cobaltkoritnigite'
_symmetry_space_group_name_H-M 'P -1'
_space_group_IT_number 2
_space_group_crystal_system 'triclinic'
loop_
_symmetry_equiv_pos_as_xyz
   'x, y, z'
   '-x, -y, -z'
_cell_length_a        7.86500
_cell_length_b       15.69900
_cell_length_c        6.71900
_cell_angle_alpha    94.2500
_cell_angle_beta     96.8900
_cell_angle_gamma    90.2800
loop_
_atom_site_label
_atom_site_fract_x
_atom_site_fract_y
_atom_site_fract_z
_atom_site_occupancy
_atom_site_B_iso_or_equiv
co      0.099   0.063   0.390    1.00000    0.631
co      0.148   0.457   0.369    1.00000    0.655
co      0.406   0.563   0.132    1.00000    0.647
co      0.351   0.956   0.119    1.00000    0.655
as      0.060   0.102   0.906    1.00000    0.639
as      0.153   0.416   0.860    1.00000    0.679
as      0.448   0.603   0.631    1.00000    0.655
as      0.341   0.914   0.614    1.00000    0.686
o      0.057   0.048   0.687    1.00000    0.842
o      0.160   0.048   0.092    1.00000    1.112
o      0.206   0.183   0.425    1.00000    1.846
o      0.339   0.552   0.424    1.00000    1.080
o      0.068   0.467   0.659    1.00000    1.026
o      0.354   0.370   0.415    1.00000    0.892
o      0.009   0.338   0.299    1.00000    1.231
o      0.192   0.481   0.073    1.00000    0.908
o      0.302   0.680   0.141    1.00000    1.531
o      0.308   0.979   0.426    1.00000    0.724
o      0.480   0.841   0.155    1.00000    1.381
o      0.134   0.867   0.045    1.00000    0.977
o      0.188   0.190   0.902    1.00000    1.334
o      0.035   0.331   0.901    1.00000    1.508
o      0.345   0.372   0.794    1.00000    1.318
o      0.447   0.547   0.835    1.00000    0.947
o      0.341   0.695   0.687    1.00000    1.263
o      0.146   0.873   0.667    1.00000    0.915
o      0.427   0.965   0.829    1.00000    0.858
o      0.452   0.829   0.548    1.00000    1.358
_cell_measurement_wavelength    1.541874
_cell_measurement_radiation   'x-rays'
_exptl_crystal_density_diffrn    3.508000
loop_
_pd_peak_d_spacing
_pd_peak_intensity
    15.654315          0.00
     7.827158       1000.00
     7.807445          0.00
     7.025865         37.37
     6.948196         35.42
     6.651570          0.06
     6.294693          0.29
     5.962522          0.01
     5.566520         17.65
     5.489590         21.92
     5.394725          8.31
     5.267929          0.96
     5.218105          0.01
     5.183095         13.41
     5.021465         18.46
     4.890268          1.58
     4.786152         19.76
     4.659380          0.14
     4.552587          0.01
     4.498856          0.79
     4.366515          6.12
     4.338886          0.09
     4.310728          7.13
     4.264292          0.31
     4.202154         10.36
     3.973930         33.21
     3.963271          0.16
     3.913579         56.46
     3.903723          8.60
     3.850874         16.46
     3.800163         84.37
     3.775413        103.34
     3.657853         12.58
     3.642709          0.52
     3.559429          0.08
     3.518311         20.73
     3.512932          0.43
     3.491716          9.89
     3.489760          5.19
     3.479301         21.36
     3.474098          0.04
     3.450330          7.54
     3.421950          0.33
     3.325785          0.72
     3.304105         71.06
     3.274332          3.80
     3.267317          4.67
     3.248163          1.43
     3.206980          3.60
     3.204536        192.51
     3.202287          0.53
     3.202225          0.74
     3.179194         12.49
     3.167081          2.20
     3.147346          0.12
     3.146885        177.11
     3.130863          0.01
     3.127236         72.89
     3.108379          0.56
     3.105152        163.23
     3.096942         16.13
     3.093128          1.33
     3.035631          7.54
     3.014588         16.70
     2.981261          0.03
     2.978957          0.48
     2.940711         61.40
     2.934737          0.72
     2.922646          2.90
     2.919991         22.85
     2.918625          0.12
     2.915555         20.81
     2.905404        177.12
     2.903437          0.73
     2.896806          8.00
     2.892051         23.43
     2.847783          6.73
     2.815009          2.75
     2.814292          3.66
     2.789196          1.47
     2.783260          5.94
     2.770410          2.14
     2.754028          0.00
     2.744795          7.29
     2.713567         84.86
     2.698696          0.01
     2.697363        109.01
     2.685431          3.02
     2.681357          0.77
     2.673141          2.63
     2.670121          0.00
     2.651537          0.21
     2.649393          3.44
     2.640004          3.76
     2.635614          2.04
     2.633965          0.05
     2.609053         27.74
     2.602482          0.01
     2.597804          0.06
     2.591548         33.15
     2.573046         16.50
     2.563589          3.49
     2.561487         20.74
     2.547942          0.00
     2.538323          2.19
     2.529346          3.50
     2.510732         12.15
     2.502916          0.75
     2.493498          0.33
     2.491052          1.26
     2.484956          0.11
     2.483079          0.91
     2.479906          4.04
     2.464252          0.06
     2.459327          6.03
     2.459144         65.04
     2.448041          2.92
     2.445134          0.07
     2.433050          0.91
     2.425964         61.57
     2.422437          0.12
     2.417495          0.00
     2.401033          0.48
     2.397590          0.09
     2.396246          0.00
     2.393076         55.85
     2.388056          0.07
     2.383672         12.64
     2.370399          6.83
     2.369047          0.03
     2.353617         12.61
     2.347435          2.26
     2.343755          0.52
     2.341955         17.29
     2.330061          0.99
     2.329690         19.05
     2.319349         10.88
     2.317809          0.21
     2.317297          5.71
     2.316065         11.86
     2.302842          0.17
     2.293972          0.62
     2.291754          0.53
     2.289650          0.92
     2.276294          0.83
     2.271140          0.00
     2.262693          0.64
     2.257297          0.00
     2.249428          1.45
     2.236331          0.00
     2.232745          5.20
     2.228803          0.73
     2.222033          0.78
     2.218580          0.03
     2.217190          0.00
     2.209876          0.23
     2.204023          0.28
     2.203879          9.96
     2.198586          1.44
     2.187202          0.06
     2.183257          0.93
     2.181270          0.01
     2.181114         11.46
     2.176630          0.00
     2.172700          0.41
     2.171613          3.08
     2.169615          2.49
     2.169443          2.92
     2.167518          5.53
     2.161728          7.85
     2.161318          1.24
     2.159012          0.71
     2.157839          1.41
     2.155364          0.53
     2.153301         10.69
     2.149356          2.95
     2.141999          1.44
     2.139061          2.30
     2.132514          2.68
     2.132146          0.00
     2.125349          0.33
     2.121983          3.86
     2.109838          2.45
     2.104486         24.58
     2.101077          3.72
     2.098231          0.08
     2.097561          0.35
     2.097489          3.29
     2.092371          0.01
     2.092209          2.35
     2.083841          0.64
     2.083228          8.17
     2.081022          9.16
     2.077157          2.80
     2.076597          0.14
     2.073140          3.70
     2.071599          2.61
     2.070418          1.28
     2.068506          1.61
     2.068280          0.01
     2.040053          0.61
     2.037162          0.01
     2.037140          0.61
     2.036325          0.03
     2.035479          0.00
     2.031070          8.75
     2.029288         24.95
     2.023181          1.47
     2.015179          6.94
     2.003526          0.05
     2.001110          0.52
     1.994546          0.01
     1.993497          1.47
     1.987794          9.74
     1.987507          0.22
     1.986965          7.45
     1.986057          0.00
     1.982179          0.74
     1.981636          0.01
     1.981287          9.99
     1.980550          0.06
     1.979064          0.03
     1.977101          4.69
     1.973333          5.55
     1.968772          0.59
     1.964129          0.02
     1.961519          0.07
     1.959653          4.18
     1.956789         13.18
     1.953156          0.77
     1.952225          4.40
     1.951861         20.07
     1.941682          2.01
     1.940181          0.39
     1.939147          0.00
     1.938020          0.32
     1.937300          3.15
     1.937103          0.00
     1.936599         28.36
     1.933563          1.01
     1.928929          3.10
     1.925437         10.46
     1.924341          0.02
     1.924038          0.80
     1.920545          0.00
     1.917573          2.75
     1.916693          1.27
     1.911829          2.12
     1.906534          1.29
     1.904969          9.88
     1.904342          0.45
     1.900082         11.30
     1.893765          1.05
     1.891884          0.39
     1.887707          8.87
     1.887115          0.01
     1.884044          3.04
     1.883935          9.68
     1.877261          2.06
     1.876831          8.63
     1.875919          2.68
     1.875867          0.04
     1.875494         22.60
     1.870600          0.56
     1.870514          2.19
     1.869721          0.37
     1.865454          0.34
     1.864663         10.47
     1.858856          6.57
     1.858472          0.44
     1.855507          0.08
     1.853980          3.46
     1.852378          4.45
     1.850765          0.61
     1.846280          1.39
     1.843542          0.51
     1.840131          1.35
     1.837379          3.76
     1.836557          2.04
     1.835409          9.57
     1.835180          0.33
     1.829891          0.37
     1.829863          0.25
     1.828927         12.99
     1.822234          4.69
     1.821355         14.30
     1.820827          0.68
     1.819860          1.81
     1.814697          0.76
     1.814667          0.00
     1.811227          0.71
     1.809934          0.66
     1.809535          1.10
     1.808364          0.56
     1.802504          0.49
     1.798242          0.24
     1.796998          0.02
     1.795735          0.67
     1.794334          3.16
     1.793815          3.96
     1.787520          5.72
     1.786331          0.31
     1.780940          0.05
     1.779715          0.54
     1.778606          0.11
     1.776297         13.32
     1.776171          0.22
     1.775246          0.05
     1.773822          0.83
     1.772759          7.88
     1.772582          0.02
     1.772414          0.00
     1.769772          0.85
     1.766797          2.17
     1.762876          1.78
     1.762347          1.65
     1.760011          0.30
     1.759156          0.17
     1.758918          5.75
     1.757426          0.18
     1.756466          0.00
     1.755976          1.36
     1.754905          0.06
     1.748438          3.32
     1.745858          0.04
     1.745696          8.23
     1.744904          0.94
     1.744880          0.02
     1.741695          2.55
     1.739650          0.21
     1.739368          0.00
     1.737049          0.07
     1.735069          0.32
     1.733248          0.12
     1.732057          0.61
     1.730512          1.95
     1.727698          0.54
     1.725165          0.00
     1.721625          4.29
     1.720340          0.27
     1.714657          1.98
     1.710975         14.17
     1.707923          4.96
     1.707347          0.01
     1.706288          4.29
     1.705392          1.01
     1.705324          0.38
     1.702784          1.78
     1.701228          9.39
     1.698810          8.34
     1.696458          3.64
     1.695133          0.05
     1.695108          4.35
     1.692755          1.76
     1.690100          2.73
     1.688073          0.46
     1.687538          1.20
     1.684718          2.12
     1.684586          3.13
     1.682417          0.02
     1.680878          8.03
     1.679689          1.41
     1.673822          1.06
     1.671358          1.69
     1.670424         10.06
     1.669920         15.23
     1.668677          0.01
     1.667932          0.00
     1.667733          0.29
     1.666835          0.47
     1.666815          0.01
     1.666791          0.32
     1.662985          0.61
     1.662892         44.21
     1.660733          0.04
     1.655959          0.39
     1.655701          0.27
     1.653302          0.16
     1.652626          1.14
     1.652052         28.56
     1.646094          0.95
     1.646021          0.13
     1.645671          9.91
     1.643274          0.00
     1.641360          0.19
     1.640674          0.33
     1.637310          2.35
     1.637166          1.62
     1.635427          4.46
     1.633659          0.01
     1.633027          3.44
     1.631141          5.11
     1.630089          1.45
     1.628475          0.32
     1.627715          2.58
     1.625666          0.66
     1.624082          8.98
     1.623237          0.00
     1.622247          1.89
     1.620041          0.25
     1.619284          0.72
     1.609930          3.87
     1.607720          2.21
     1.603673          0.83
     1.603490          2.40
     1.603038          0.53
     1.602834          0.09
     1.602268          1.73
     1.601144          0.16
     1.601113          0.65
     1.600570          0.35
     1.598414          1.86
     1.597292          0.06
     1.597076          3.69
     1.595384          0.02
     1.595156          4.11
     1.593315          9.06
     1.591764          2.75
     1.591717          0.31
     1.591254          6.76
     1.589597          0.35
     1.587845          0.23
     1.585208          2.26
     1.585126          0.68
     1.583541          0.03
     1.583038          8.01
     1.582774          0.12
     1.582151          8.76
     1.580636          3.55
     1.580040          0.39
     1.579295          0.07
     1.577639         18.18
     1.577224          0.22
     1.576779          1.15
     1.576156          2.97
     1.574569          2.66
     1.573673          0.14
     1.573443          4.11
     1.573113          0.03
     1.568027          0.05
     1.565873          7.27
     1.565466          0.01
     1.565432          0.02
     1.563618          8.23
     1.562693          0.03
     1.561489          0.11
     1.561467          0.00
     1.561363          5.07
     1.560220          3.10
     1.560154         12.48
     1.559939          5.15
     1.559183          2.19
     1.559124          0.89
     1.556359          1.13
     1.555918          2.65
     1.555541          0.16
     1.554389          0.16
     1.554263          0.73
     1.554189          0.13
     1.553658          2.34
     1.553127          0.14
     1.552576          3.70
     1.552150          1.19
     1.551685          0.08
     1.551647          2.52
     1.551573          5.38
     1.550986          0.18
     1.550028          3.50
     1.549301          4.86
     1.548471          0.03
     1.547702         10.06
     1.547374          0.97
     1.546564          5.23
     1.546034          0.65
     1.545648          0.21
     1.544416          2.15
     1.543741          0.07
     1.539016          0.51
     1.537746          1.98
     1.536521          1.28
     1.535419         10.04
     1.533988          0.05
     1.533554          0.01
     1.532888          1.02
     1.531348          0.03
     1.530782          0.40
     1.529202          6.24
     1.527962          0.78
     1.527242         12.96
     1.525830          5.82
     1.525164          0.14
     1.524536          0.37
     1.519143          0.00
     1.518456          1.37
     1.518429          1.03
     1.517815          0.32
     1.517617          0.27
     1.517529          0.00
     1.517449          0.03
     1.516907          0.06
##############################################################################
###                            Comments                                    ###
##############################################################################
###   Diffraction pattern calculated by Match!. 
###   I/Ic calculated by Match!. 
##############################################################################


