##############################################################################
###               Crystal structure data exported by Match!                ###
##############################################################################
###                           Data published by:                           ###
###                                                                        ###
###               COD (Crystallography Open Database)
##############################################################################
data_1538411
_citation_journal_full    'Zeitschrift fuer Anorganische und Allgemeine Chemie'
_citation_journal_volume  '254'
_citation_page_first  '31'
_citation_page_last   '36'
_citation_year  '1947'
_citation_title  'Die Kristallstruktur von Co2 P'
loop_
_publ_author_name
  'Nowotny H.'
_chemical_formula_sum  'Co2 P'
_chemical_name_common  'Co2 P'
_symmetry_space_group_name_H-M 'P b n m'
_space_group_IT_number 62
_space_group_crystal_system 'orthorhombic'
loop_
_symmetry_equiv_pos_as_xyz
   'x, y, z'
   '-x, -y, z+0.5'
   'x+0.5, -y+0.5, -z'
   '-x+0.5, y+0.5, -z+0.5'
   '-x, -y, -z'
   'x, y, -z+0.5'
   '-x+0.5, y+0.5, z'
   'x+0.5, -y+0.5, z+0.5'
_cell_length_a        6.63800
_cell_length_b        5.67000
_cell_length_c        3.52000
_cell_angle_alpha    90.0000
_cell_angle_beta     90.0000
_cell_angle_gamma    90.0000
_cell_formula_units_Z 4
loop_
_atom_site_label
_atom_site_fract_x
_atom_site_fract_y
_atom_site_fract_z
_atom_site_occupancy
_atom_site_B_iso_or_equiv
co      0.333   -0.030   0.250    1.00000    1.000
p      -0.100   0.250   0.250    1.00000    1.000
co      -0.070   -0.138   0.250    1.00000    1.000
_cell_measurement_wavelength    1.541874
_cell_measurement_radiation   'x-rays'
_exptl_crystal_density_diffrn    7.461000
loop_
_pd_peak_d_spacing
_pd_peak_intensity
     4.311305         16.72
     3.319000         38.59
     3.109816         16.12
     2.864350         45.86
     2.835000         21.31
     2.726632         40.18
     2.607176          4.65
     2.221718       1000.00
     2.207938        495.40
     2.155653        129.65
     2.095081        608.17
     2.061273        279.76
     1.873302        313.29
     1.838323         56.00
     1.817755        195.45
     1.778735         69.69
     1.760000        372.77
     1.744285        107.25
     1.659500         55.45
     1.642379        161.51
     1.629454          1.66
     1.615111         60.76
     1.592685          7.32
     1.562917         57.71
     1.554908          6.03
     1.499544         10.08
     1.495285          4.75
     1.488342          0.58
     1.458733          1.16
     1.451061          5.35
     1.437102         21.31
     1.432175          0.03
     1.417500          1.98
     1.386245         24.49
     1.363316         45.24
     1.338473        103.34
     1.330489         19.85
     1.326576         10.21
     1.314888          4.84
     1.303588         23.39
     1.292639         26.40
     1.289827         36.54
     1.264433         88.80
     1.247019          3.41
     1.242187         80.20
     1.238914         52.22
     1.222451         16.23
     1.213408          0.03
     1.207410         30.91
     1.202300         31.22
     1.200768         91.51
     1.193578          2.29
     1.180931          3.63
     1.175437        113.87
     1.155422          0.37
     1.137762         18.00
     1.132155          1.13
     1.130362          6.60
     1.117806          7.37
     1.113153         14.76
     1.110859          0.00
     1.106333          0.85
     1.103969          1.77
     1.089011         18.25
     1.086369          0.09
     1.085856          7.93
     1.085769         61.48
     1.084149         30.93
     1.077826          6.25
     1.073093          4.53
     1.069972         45.71
     1.065378         89.56
     1.047540         19.44
     1.041834         22.93
     1.038055         36.48
     1.037608          3.07
     1.036605         32.35
     1.030636         32.71
     1.030595          2.20
     1.030562          5.64
     1.026455          1.42
     1.019704          8.26
     1.017502          3.56
     1.009183          3.33
##############################################################################
###                            Comments                                    ###
##############################################################################
###   Diffraction pattern calculated by Match!. 
###   I/Ic calculated by Match!. 
##############################################################################


