##############################################################################
###               Crystal structure data exported by Match!                ###
##############################################################################
###                           Data published by:                           ###
###                                                                        ###
###               COD (Crystallography Open Database)
##############################################################################
data_9010055
_citation_journal_full    'American Mineralogist'
_citation_journal_volume  '90'
_citation_page_first  '1563'
_citation_page_last   '1570'
_citation_year  '2005'
_citation_title  'Light-induced degradation dynamics in realgar: in situ structuralinvestigation using single crystal X-ray diffraction and X-ray photoelectronspectroscopy Sample: Getchell mine, Nevada'
loop_
_publ_author_name
  'Kyono A.'
  'Kimata M.'
  'Hatta T.'
_chemical_formula_sum  'As S'
_chemical_name_mineral  'Realgar'
_symmetry_space_group_name_H-M 'P 1 21/n 1'
_space_group_IT_number 14
_space_group_crystal_system 'monoclinic'
loop_
_symmetry_equiv_pos_as_xyz
   'x, y, z'
   '-x+0.5, y+0.5, -z+0.5'
   '-x, -y, -z'
   'x+0.5, -y+0.5, z+0.5'
_cell_length_a        9.34300
_cell_length_b       13.56100
_cell_length_c        6.58000
_cell_angle_alpha    90.0000
_cell_angle_beta    106.1000
_cell_angle_gamma    90.0000
loop_
_atom_site_label
_atom_site_fract_x
_atom_site_fract_y
_atom_site_fract_z
_atom_site_occupancy
_atom_site_B_iso_or_equiv
as      0.123   -0.021   0.764    1.00000    3.600
as      0.423   0.139   0.855    1.00000    3.560
as      0.321   0.127   0.176    1.00000    3.568
as      0.041   0.161   0.715    1.00000    3.782
s      0.346   -0.006   0.703    1.00000    3.750
s      0.214   -0.022   0.115    1.00000    3.616
s      0.240   0.225   0.640    1.00000    4.003
s      0.107   0.210   0.049    1.00000    3.900
_cell_measurement_wavelength    1.541874
_cell_measurement_radiation   'x-rays'
_exptl_crystal_density_diffrn    3.549000
loop_
_pd_peak_d_spacing
_pd_peak_intensity
     7.485241         76.20
     6.780500         56.75
     6.013012        415.13
     5.729882        445.50
     5.496879        254.44
     5.410458       1000.00
     4.623902        102.52
     4.602660         26.11
     4.498823         12.49
     4.488280          1.09
     4.358464          0.02
     4.260968         42.22
     4.063806        206.25
     4.037326         27.05
     3.808170         36.84
     3.742620         70.06
     3.677061         46.42
     3.613214          5.03
     3.606892         85.63
     3.390250          5.13
     3.225071         23.10
     3.188136         11.36
     3.184965        281.22
     3.171589        235.34
     3.167887         26.15
     3.160963        384.21
     3.100056         14.75
     3.078441         59.78
     3.051492        301.51
     3.006506          0.72
     2.987748        187.23
     2.977053         60.66
     2.953193          0.30
     2.952724        202.99
     2.936616        465.19
     2.935235        140.52
     2.921906         12.37
     2.864941         79.24
     2.782680         95.20
     2.748440         11.46
     2.737487        109.36
     2.729676        364.44
     2.705229         86.02
     2.697017        122.73
     2.654789          2.84
     2.652618         49.81
     2.643063          3.05
     2.596280        143.28
     2.590442         16.87
     2.549967          7.59
     2.529156         18.27
     2.511224        104.27
     2.503365         14.77
     2.495080        121.85
     2.492505          1.71
     2.472336        134.37
     2.454160         87.40
     2.414933         38.44
     2.391236         79.94
     2.357349         56.47
     2.350635          0.10
     2.349128         13.16
     2.336683          0.04
     2.321293          5.84
     2.311951          4.76
     2.307655         21.04
     2.301330         11.39
     2.294587          0.08
     2.287797          0.07
     2.268891          1.69
     2.268067          0.50
     2.260167        117.10
     2.249412          0.36
     2.244140         17.90
     2.243396         42.97
     2.224560         95.22
     2.214029         19.28
     2.201970         15.84
     2.191760         79.73
     2.191185        107.15
     2.179232         25.55
     2.163129         54.81
     2.156794          1.30
     2.136657          1.88
     2.130484         40.25
     2.129781         83.23
     2.128244          5.72
     2.124173         90.68
     2.115648         35.03
     2.103991         33.44
     2.090196          0.50
     2.085016          0.46
     2.084458          1.80
     2.082317         24.85
     2.069765          0.54
     2.058354          0.10
     2.050848          3.07
     2.050063         40.19
     2.040652         14.66
     2.031903         33.99
     2.028760          5.03
     2.027202          2.44
     2.018663         19.26
     2.013848          0.11
     2.012362          0.35
     2.010062          2.46
     2.009527         18.41
     2.004337         15.59
     1.996518          8.03
     1.987964         39.74
     1.982797         10.18
     1.971743         17.39
     1.942105          4.66
     1.935582          2.65
     1.931730         23.75
     1.931252          2.34
     1.926644          0.55
     1.922117          3.87
     1.919196          2.02
     1.916162         10.77
     1.909961          3.68
     1.904085          8.14
     1.903974          4.75
     1.893687          5.72
     1.875051         14.37
     1.871310          6.17
     1.868555         14.16
     1.861232         68.93
     1.861115         38.23
     1.859912          2.66
     1.857061         97.56
     1.852268          8.70
     1.851066         20.39
     1.850056         10.28
     1.843946          2.67
     1.840274          5.04
     1.838530         58.14
     1.832293          2.96
     1.819759          0.95
     1.816229         81.98
     1.816107          0.03
     1.806607          3.04
     1.803486         14.45
     1.803446         13.72
     1.801405         81.61
     1.791386         47.35
     1.790550         10.01
     1.789741         22.63
     1.785565          3.15
     1.779783          2.45
     1.779323         18.69
     1.778670          0.44
     1.773196          1.80
     1.769552         12.87
     1.766569         34.73
     1.763465         10.04
     1.754763         12.94
     1.746614         14.17
     1.745486          0.71
     1.735508         14.63
     1.729399          4.20
     1.729010          3.16
     1.726836         17.34
     1.725363         34.78
     1.717752         11.42
     1.704440         86.87
     1.695125         32.40
     1.692988         47.56
     1.691078          0.49
     1.685186          3.90
     1.680919         90.05
     1.677845         70.44
     1.677394         33.16
     1.675056         22.58
     1.672674          2.70
     1.668532          2.94
     1.668069          4.10
     1.665686          9.57
     1.665149          0.08
     1.664057         22.32
     1.663102         20.86
     1.662537         21.62
     1.651751          1.76
     1.640034         16.95
     1.637289          1.81
     1.636459         45.97
     1.635523         16.55
     1.631533          3.41
     1.629015          6.40
     1.628486          9.58
     1.628171          3.40
     1.626198         11.37
     1.624166          7.34
     1.621683         23.22
     1.617387          0.60
     1.617099          0.23
     1.613442          3.85
     1.612536          9.83
     1.611935          0.08
     1.603662          0.31
     1.602142         28.40
     1.594196         10.76
     1.594068          1.35
     1.592565          6.58
     1.592483          3.85
     1.590675          1.91
     1.590309          0.01
     1.586583          4.63
     1.585794          4.84
     1.584135          3.53
     1.583944         36.18
     1.583872         10.81
     1.581912          1.01
     1.580779          0.48
     1.580482          0.01
     1.575516          0.04
     1.574991          0.61
     1.573224         21.38
     1.569856          4.34
     1.569616         12.94
     1.568720          0.02
     1.560608          3.37
     1.558045         11.12
     1.550028         13.96
     1.549512          6.00
     1.545636          0.02
     1.543799         17.25
     1.542168          6.28
     1.541701          0.06
     1.541301          1.55
     1.539220          4.19
     1.538729          4.99
     1.538300          1.11
     1.534220          4.04
     1.532537          2.80
     1.525746          0.17
     1.524495          0.06
     1.520605         12.45
     1.519548          4.11
     1.516370         33.33
     1.516180         16.65
     1.511370          1.35
     1.505914          2.29
     1.503764         29.09
     1.503439          0.15
     1.503253         29.23
     1.501285          4.11
     1.499608         13.72
     1.497048          0.38
     1.496392          2.25
     1.496093          0.57
     1.494101         16.50
     1.493874         12.93
     1.493122          4.47
     1.491919          3.30
     1.489159          2.15
     1.488526          0.53
     1.487071          0.28
     1.485989          3.54
     1.482066          8.58
     1.481836          4.15
     1.478808         19.38
     1.476933          2.37
     1.476597          0.13
     1.476362          7.53
     1.474891          4.69
     1.473374          0.39
     1.471083         27.25
     1.470151          0.86
     1.468308         46.35
     1.467618          6.29
     1.466452          0.54
     1.465721          1.41
     1.464625          0.01
     1.461587          1.09
     1.460953          3.74
     1.459565          5.50
     1.456873         30.63
     1.453115          7.94
     1.452821          0.25
     1.451372          4.72
     1.449662         10.67
     1.445620          9.60
     1.443295          4.61
     1.440754         12.70
     1.440127          0.20
     1.439428          9.44
     1.433100          0.28
     1.432470          5.82
     1.431996          2.04
     1.428432         27.04
     1.426444          0.81
     1.426194         13.50
     1.420520          0.31
     1.420323          0.01
     1.413998          2.36
     1.413118          9.74
     1.412591          4.45
     1.412135          0.11
     1.411072          0.01
     1.405785          0.86
     1.403407         10.54
     1.402532          8.57
     1.400840          2.92
     1.397757          0.35
     1.396484          1.61
     1.395486          6.22
     1.394757          8.09
     1.392969          1.54
     1.391340          1.08
     1.389712          3.30
     1.386635          0.58
     1.386005          3.09
     1.380413          0.26
     1.375996          0.03
     1.374739          0.00
     1.374610          1.03
     1.374220          0.58
     1.373834         18.49
     1.372716          0.03
     1.370371          1.15
     1.369265          2.26
     1.369219         16.04
     1.368967          5.68
     1.368744          0.15
     1.367602          0.18
     1.366065          1.50
     1.365545          2.07
     1.364838          2.54
     1.364797          0.32
     1.364786          1.06
     1.362292          0.36
     1.360150          1.20
     1.356100          0.74
     1.354602          2.16
     1.352749          0.01
     1.352615          3.30
     1.351046          0.17
     1.349514          0.23
     1.348508          2.29
     1.347071          7.93
     1.345775          0.15
     1.345735          2.18
     1.344910          0.48
     1.340885          0.44
     1.340753          1.81
     1.339886          1.16
     1.335374          0.08
     1.332999          2.27
     1.331487          0.35
     1.331321          0.62
     1.330723          3.46
     1.329775          7.60
     1.327394          0.39
     1.326309         17.96
     1.325938          7.76
     1.325221          0.00
     1.324362          0.02
     1.322875          2.59
     1.321643          0.00
     1.321532          0.16
     1.321154          3.20
     1.320829          2.03
     1.316811          0.22
     1.316707          1.01
     1.316359          0.84
     1.314804          6.87
     1.314137          0.14
     1.313779         11.77
     1.313176          0.71
     1.310006          0.00
     1.309833          5.80
     1.309638          0.64
     1.307887          0.03
     1.305813          0.50
     1.304346          0.13
     1.302924          1.57
     1.301922          0.06
     1.301335          2.77
     1.301215          0.01
     1.300814          2.22
     1.298473          1.52
     1.298140          3.56
     1.297946          0.88
     1.296951          1.75
     1.296325          0.56
     1.295266          0.15
     1.295221          2.09
     1.294307          1.13
     1.292194          1.90
     1.291880          5.41
     1.291085          0.24
     1.288714          0.00
     1.284071          1.29
     1.281517          3.19
     1.279643          5.82
     1.279515          0.88
     1.277896          1.19
     1.277710          0.03
     1.276670          0.42
     1.276557          0.50
     1.275225          0.35
     1.274984          0.09
     1.272639          0.02
     1.272077          7.89
     1.271613          0.18
     1.269697          2.14
     1.269390          0.30
     1.264965          1.40
     1.264578          1.13
     1.263530          2.52
     1.261851          0.42
     1.261837          2.62
     1.260610          0.50
     1.260029          5.29
     1.258925          0.26
     1.257908          0.15
     1.256410          0.09
     1.255847          7.38
     1.255612          0.00
     1.255481          0.05
     1.255166          0.59
     1.253217          0.04
     1.251977          0.56
     1.251955          0.82
     1.251727          0.25
     1.251682          4.68
     1.250959          0.04
     1.250439          0.15
     1.249905          1.19
     1.247540          0.00
     1.246807          0.22
     1.246252          0.93
     1.246097          1.60
     1.242960          0.47
     1.242649          0.20
     1.241559          0.93
     1.240539          0.96
     1.239997          1.33
     1.239783          0.44
     1.239341          7.81
     1.239333          5.30
     1.239238          1.33
     1.238717          0.47
     1.236168          0.02
     1.236091          1.48
     1.235330          0.37
     1.235167          0.82
     1.234057          0.17
     1.233683          1.01
     1.232532          4.90
     1.232446          0.12
     1.230338          0.96
     1.230062          0.52
     1.229804          0.00
     1.229537          5.52
     1.227106          4.51
     1.227080          2.46
     1.226804          0.00
     1.225687          0.59
     1.225015          1.32
     1.224640          0.02
     1.222087          0.02
     1.221354          2.22
     1.217649          0.01
     1.216430          0.36
     1.216201          2.14
     1.215385          0.66
     1.215373          0.06
     1.214863          6.13
     1.214810          9.39
     1.214247          0.13
     1.213037          0.33
     1.211359          4.45
     1.210860          0.24
     1.210026          1.68
     1.207697          2.08
     1.207466          0.59
     1.206663          0.00
     1.206062          0.38
     1.204405          5.08
     1.202737          4.13
     1.202602          0.00
     1.202297          0.94
     1.201914          0.01
     1.199430          0.05
     1.198641          2.27
     1.197901          3.70
     1.197878          1.00
     1.195618          0.70
     1.194672          1.76
     1.193920          0.06
     1.192563          3.39
     1.192002          1.24
     1.191972          0.01
     1.190841          2.68
     1.189319          0.11
     1.189044          1.03
     1.188984          1.61
     1.188789          3.43
##############################################################################
###                            Comments                                    ###
##############################################################################
###   Diffraction pattern calculated by Match!. 
###   I/Ic calculated by Match!. 
##############################################################################


