##############################################################################
###               Crystal structure data exported by Match!                ###
##############################################################################
###                           Data published by:                           ###
###                                                                        ###
###               COD (Crystallography Open Database)
##############################################################################
data_9010408
_citation_journal_full    'American Mineralogist'
_citation_journal_volume  '93'
_citation_page_first  '584'
_citation_page_last   '590'
_citation_year  '2008'
_citation_title  'Structure and reactivity of synthetic Co-substituted goethitesLocality: syntheticSample: G5, 5 mol% CoNote: changed O(x) to match reported bond distances'
loop_
_publ_author_name
  'Alvarez M.'
  'Sileo E. E.'
  'Rueda E. H.'
_chemical_formula_sum  'Co0.05 Fe0.95 H O2'
_chemical_name_mineral  'Goethite'
_symmetry_space_group_name_H-M 'P b n m'
_space_group_IT_number 62
_space_group_crystal_system 'orthorhombic'
loop_
_symmetry_equiv_pos_as_xyz
   'x, y, z'
   '-x, -y, z+0.5'
   'x+0.5, -y+0.5, -z'
   '-x+0.5, y+0.5, -z+0.5'
   '-x, -y, -z'
   'x, y, -z+0.5'
   '-x+0.5, y+0.5, z'
   'x+0.5, -y+0.5, z+0.5'
_cell_length_a        4.59750
_cell_length_b        9.93950
_cell_length_c        3.01830
_cell_angle_alpha    90.0000
_cell_angle_beta     90.0000
_cell_angle_gamma    90.0000
loop_
_atom_site_label
_atom_site_fract_x
_atom_site_fract_y
_atom_site_fract_z
_atom_site_occupancy
_atom_site_B_iso_or_equiv
fe      0.048   -0.145   0.250    0.95000    1.000
co      0.048   -0.145   0.250    0.05000    1.000
o      -0.293   0.198   0.250    1.00000    1.000
o      0.192   0.053   0.250    1.00000    1.000
_cell_measurement_wavelength    1.541874
_cell_measurement_radiation   'x-rays'
_exptl_crystal_density_diffrn    4.286000
loop_
_pd_peak_d_spacing
_pd_peak_intensity
     4.969750        117.29
     4.172738       1000.00
     3.374859        108.56
     2.687926        396.44
     2.579786        232.60
     2.523144         46.67
     2.484875        144.59
     2.445577        643.10
     2.298750         31.34
     2.249796         85.83
     2.239634         25.33
     2.186012        145.41
     2.086369         10.06
     2.007331         34.28
     1.918395         54.76
     1.888674          4.77
     1.824638          8.60
     1.798574        105.72
     1.770447         24.26
     1.716254        320.26
     1.687430         92.25
     1.656583         30.02
     1.601059         65.04
     1.561488        217.12
     1.558498          4.08
     1.514603          4.97
     1.509150         95.11
     1.503642         43.73
     1.472878         29.29
     1.464454         41.27
     1.452231         97.68
     1.444038          4.82
     1.419184         56.07
     1.390913         41.40
     1.384789          0.15
     1.377679          9.93
     1.366455         40.77
     1.356696         49.49
     1.353722         18.08
     1.345879          0.03
     1.343963         17.72
     1.317559         15.78
     1.315925         61.30
     1.304382          0.95
     1.289893         26.39
     1.263234         20.18
     1.261572          9.34
     1.251531          6.93
     1.242437          0.37
     1.241938         22.69
     1.237437          0.60
     1.227752          5.62
     1.222789          2.53
     1.213708          0.26
     1.208046          0.42
     1.199412          0.12
     1.197356         29.43
     1.178993          1.63
     1.162921          2.39
     1.149375          3.23
     1.148907         21.19
     1.141766         26.41
     1.126076          9.11
     1.124953          9.69
     1.124898         33.14
     1.121549          7.50
     1.119817          0.59
     1.115619         11.71
     1.114630          1.15
     1.093006         11.98
     1.085889          4.32
     1.084156          1.85
     1.073841          4.02
     1.069053          2.75
     1.067913          4.37
     1.065177         20.33
     1.054118         16.77
     1.050971         21.80
     1.049888          3.08
     1.043185          1.59
     1.041567          7.89
     1.027698         17.72
     1.022773         23.41
     1.021775         25.15
     1.011718         25.10
     1.008936         31.96
##############################################################################
###                            Comments                                    ###
##############################################################################
###   Diffraction pattern calculated by Match!. 
###   I/Ic calculated by Match!. 
###   Space group has been derived from given symmetry operations. 
##############################################################################


