##############################################################################
###               Crystal structure data exported by Match!                ###
##############################################################################
###                           Data published by:                           ###
###                                                                        ###
###               COD (Crystallography Open Database)
##############################################################################
data_2201013
_citation_journal_full    'Acta Crystallographica, Section E'
_citation_journal_volume  '58'
_citation_page_first  'i32'
_citation_page_last   'i33'
_citation_year  '2002'
_citation_title  'Rerefinement of cobalt diphosphate against new intensity data'
loop_
_publ_author_name
  'El Bali Brahim'
  'Bolte Michael'
_chemical_formula_sum  'Co2 O7 P2'
_symmetry_space_group_name_H-M 'P 1 21/c 1'
_space_group_IT_number 14
_space_group_crystal_system 'monoclinic'
loop_
_symmetry_equiv_pos_as_xyz
   'x, y, z'
   '-x, y+0.5, -z+0.5'
   '-x, -y, -z'
   'x, -y+0.5, z+0.5'
_cell_length_a        7.00220
_cell_length_b        8.36340
_cell_length_c        9.01140
_cell_angle_alpha    90.0000
_cell_angle_beta    113.6000
_cell_angle_gamma    90.0000
_cell_formula_units_Z 4
loop_
_atom_site_label
_atom_site_fract_x
_atom_site_fract_y
_atom_site_fract_z
_atom_site_occupancy
_atom_site_B_iso_or_equiv
co      0.232   0.929   0.109    1.00000    0.630
co      0.699   0.442   0.825    1.00000    0.679
p      0.940   0.768   0.758    1.00000    0.587
p      0.532   0.774   0.468    1.00000    0.562
o      0.749   0.830   0.600    1.00000    0.866
o      0.378   0.765   0.549    1.00000    0.757
o      1.119   0.759   0.703    1.00000    0.732
o      0.977   0.901   0.882    1.00000    0.750
o      0.887   0.611   0.811    1.00000    0.992
o      0.481   0.909   0.344    1.00000    0.724
o      0.553   0.613   0.397    1.00000    0.765
_cell_measurement_wavelength    1.541874
_cell_measurement_radiation   'x-rays'
_cell_measurement_temperature    173.000000
_exptl_crystal_density_diffrn    4.008000
loop_
_pd_peak_d_spacing
_pd_peak_intensity
     6.416555         43.80
     5.876094         30.75
     5.120578         26.11
     5.090862        115.42
     4.355032        133.56
     4.181700          0.59
     4.128856         58.29
     3.862711         11.68
     3.824677         99.12
     3.730628         19.03
     3.702271         48.00
     3.513028         37.02
     3.503388          8.24
     3.238182          0.26
     3.229310         10.43
     3.208278         14.57
     3.019736        593.46
     3.016325       1000.00
     2.998110         40.09
     2.995440         26.76
     2.972572        766.43
     2.938047         20.28
     2.825772         81.37
     2.800915          1.41
     2.684319         26.94
     2.641339         16.15
     2.614603         49.35
     2.560641         22.68
     2.560289          0.63
     2.558513          8.10
     2.556900        230.66
     2.545431        274.41
     2.529114         30.17
     2.438844          1.80
     2.422809          5.36
     2.347942          1.56
     2.339320          4.97
     2.315056         42.44
     2.310451         40.64
     2.299178          5.71
     2.260759          0.00
     2.244605          6.93
     2.240399         17.10
     2.231155          0.23
     2.223753          8.34
     2.180804          2.34
     2.177516         33.38
     2.167886         28.52
     2.152136        144.38
     2.150370          3.94
     2.138852          0.04
     2.112713        338.01
     2.107263          0.02
     2.104341          8.42
     2.090850          1.83
     2.090276          1.81
     2.082631         60.57
     2.072162         53.11
     2.064428         29.65
     2.042910          6.10
     2.033458         11.82
     2.026887          1.72
     2.025389         95.97
     2.019846          5.36
     2.004270          1.07
     1.989727          4.72
     1.987971          0.01
     1.977706         10.71
     1.965726          1.41
     1.958698          7.66
     1.934781          0.02
     1.931355         31.76
     1.921973          7.48
     1.918252          5.28
     1.917781          3.72
     1.912338          4.31
     1.904224         10.02
     1.884876         31.18
     1.880407         13.89
     1.869266          1.85
     1.865314          0.22
     1.851135        117.84
     1.847768          3.05
     1.795065          5.60
     1.781021          3.74
     1.777249          1.77
     1.769500         13.35
     1.756514          0.17
     1.751694          4.93
     1.750404          9.21
     1.748854         10.98
     1.748339         45.48
     1.743202          0.30
     1.741697          5.35
     1.740046          6.39
     1.731177          0.25
     1.730054          6.09
     1.725728         85.14
     1.716071          6.18
     1.715782         11.99
     1.713282          6.37
     1.710171         22.35
     1.706859          5.58
     1.702689         55.54
     1.696954         56.69
     1.681788          6.20
     1.673356          9.38
     1.664977         12.23
     1.659059          0.03
     1.650212         14.55
     1.648624          0.74
     1.644327          3.44
     1.642244         10.13
     1.639386         24.37
     1.638373         25.14
     1.637711          2.96
     1.629607          1.99
     1.628671         45.87
     1.620253         85.10
     1.619536          0.93
     1.619091        103.02
     1.618588         88.58
     1.617497          9.59
     1.614655          0.34
     1.604139         26.09
     1.589578          0.00
     1.588212          0.08
     1.581104          5.17
     1.580022        207.75
     1.566976          5.58
     1.561469          1.00
     1.558925          1.36
     1.551682          2.34
     1.550933         17.93
     1.550293         40.71
     1.549185          5.57
     1.536081          0.15
     1.533732         30.19
     1.529925          0.03
     1.524359          1.68
     1.509868         22.43
     1.509254          0.85
     1.508162          4.01
     1.505280          3.25
     1.501898          0.50
     1.501168          1.67
     1.500709          0.73
     1.499055          2.15
     1.497720         11.25
     1.495137          0.65
     1.493964          8.47
     1.493242          0.00
     1.486286         24.13
     1.486124         47.42
     1.483201          4.39
     1.482418         84.08
     1.477555          0.00
     1.471930          4.76
     1.469024         34.99
     1.463358          3.32
     1.462854          0.03
     1.461875          1.36
     1.461210          0.67
     1.457740          1.48
     1.456327          1.14
     1.451677         14.95
     1.449650          0.50
     1.446363         36.09
     1.442225          1.07
     1.432648          3.54
     1.430291          1.40
     1.429446          2.66
     1.420917          1.80
     1.420069          3.66
     1.419057          0.91
     1.414982          0.47
     1.413307          0.00
     1.412972         24.02
     1.412886          0.74
     1.403946         27.30
     1.400458         16.67
     1.400092          0.33
     1.400016          1.27
     1.393900         51.47
     1.393803         22.81
     1.390389          2.74
     1.388428          3.69
     1.385539          2.47
     1.381901         20.00
     1.377752          3.46
     1.376285          0.00
     1.374841          0.15
     1.374456          7.36
     1.371392          5.68
     1.362695          0.82
     1.362130          0.02
     1.361312          0.12
     1.359057          8.15
     1.358020          1.84
     1.356104          0.11
     1.355814          0.37
     1.355690         29.46
     1.354147          2.99
     1.350710          0.12
     1.350177         58.60
     1.343675          0.15
     1.343629         26.06
     1.342160          0.26
     1.341228         24.04
     1.337473         17.76
     1.335579         39.23
     1.327558         10.72
     1.326856          1.46
     1.326671          0.11
     1.326662         30.93
     1.326493          2.46
     1.325994          0.49
     1.324875          0.01
     1.322704          5.96
     1.322287          8.65
     1.322224          0.02
     1.321726         69.22
     1.320670          2.06
     1.320283          8.51
     1.317604         25.12
     1.311534          5.34
     1.311171          1.95
     1.310288          5.37
     1.307301          6.04
     1.304887          0.02
     1.301638          4.10
     1.299627          6.81
     1.299257          6.40
     1.296256          0.75
     1.296004          1.19
     1.295021          0.26
     1.294593          2.57
     1.294449          1.64
     1.287570          1.84
     1.287245          0.00
     1.283311          5.11
     1.280320          0.06
     1.280145          1.17
     1.280013          0.16
     1.279257          1.93
     1.278450          0.09
     1.274892          0.82
     1.272716          1.47
     1.271570          0.21
     1.268465          9.32
     1.264557          4.78
     1.264286          2.22
     1.262037         50.05
     1.260694         12.21
     1.260570          6.08
     1.255770         10.34
     1.255336          0.56
     1.253915          0.03
     1.248841          0.70
     1.247182          3.54
     1.246673          0.20
     1.243543         13.14
     1.241429          0.00
     1.239026         21.76
     1.237355          1.97
     1.237278          0.21
     1.234090          0.01
     1.233985          0.68
     1.233542          1.96
     1.229647         23.04
     1.226839          0.00
     1.223261          0.03
     1.221623          0.18
     1.219804          0.02
     1.219422          2.67
     1.219176          0.54
     1.217176          0.17
     1.215551          6.50
     1.215342          1.82
     1.215162          0.86
     1.211405          6.69
     1.211119          0.50
     1.211076         15.09
     1.210416          0.25
     1.209307          0.87
     1.203593          0.03
     1.202328          0.04
     1.201710          0.27
     1.200145          0.27
     1.199334          6.27
     1.198575          0.64
     1.198078          0.50
     1.197941          0.03
     1.196623          2.47
     1.195159          6.39
     1.195018          0.07
     1.194151         11.87
     1.193012          4.49
     1.192445          0.70
     1.185342          0.13
     1.184149          0.05
     1.182459          0.17
     1.182353          1.12
     1.181830          0.11
     1.181608          0.04
     1.181562          4.24
     1.175219          9.56
     1.174945          4.40
     1.174673          0.02
     1.174583          1.45
     1.174166          3.40
     1.173971          3.30
     1.171009          0.24
     1.169660          0.04
     1.168138          1.04
     1.168110          0.04
     1.167796          0.01
     1.165729         19.22
     1.163354          0.00
     1.163273         19.71
     1.161488          0.69
     1.161484          4.37
     1.159739          0.16
     1.159689         10.72
     1.157770          0.65
     1.157528          6.14
     1.155853          2.68
     1.155740          3.92
     1.155225          1.23
     1.153395          0.12
     1.152199          0.35
     1.151175          5.04
     1.151164          5.32
     1.149589          0.04
     1.147743          6.81
     1.147686          7.77
     1.146598          0.64
     1.144641          0.07
     1.142756          0.42
     1.142581         20.42
     1.140820          0.25
     1.138449          1.23
     1.135880          3.95
     1.135360          1.07
     1.130734          0.06
     1.130380          0.08
     1.127535          0.02
     1.123992          1.67
     1.122765          2.09
     1.122303          0.72
     1.121915          0.47
     1.120908          0.05
     1.120200          0.00
     1.119653          0.01
     1.117218          0.00
     1.116672          0.44
     1.115578          8.68
     1.113568          0.02
     1.112332          0.01
     1.111954         14.72
     1.111876          2.65
     1.111042          0.34
     1.110822          3.82
     1.110789          0.30
     1.110300          3.05
     1.110101          1.88
     1.109285          1.51
     1.109235          0.44
     1.108577          2.58
     1.106354          0.04
     1.105007          0.40
     1.103827          0.04
     1.103549         12.94
     1.101708          0.55
     1.101104          0.07
     1.100232          0.70
     1.100173          0.01
     1.099405          0.23
     1.097620          0.58
     1.097243          0.04
     1.096799          0.09
     1.096361          0.58
     1.095980          0.01
     1.095716         12.72
     1.094973          0.34
     1.094688          0.07
     1.093728          1.10
     1.091737          0.65
     1.090402          0.63
     1.089823          1.14
     1.089420         15.85
     1.088758          5.45
     1.088734          0.00
     1.088502          0.88
     1.087958          2.14
     1.086410          0.03
     1.085558          0.02
     1.083943          0.06
     1.083593          1.94
     1.082148          0.05
     1.082063          0.01
     1.081123          3.66
     1.080687          3.24
     1.079892          7.19
     1.079648          0.08
     1.079394          0.01
     1.076484         24.77
     1.076437          1.54
     1.076254          0.59
     1.076068          0.06
     1.075185          0.53
     1.074687          0.81
     1.072682         18.13
     1.072153          0.11
     1.071102          5.41
     1.070780          1.66
     1.070515          0.76
     1.070131          1.50
     1.069554          0.06
     1.069426          1.22
     1.069039          0.27
     1.066409          0.65
     1.065780          0.01
     1.065215          0.71
     1.064431          0.64
     1.062775          0.69
     1.061717          0.10
     1.060916          0.01
     1.060789          0.03
     1.056356         15.80
     1.055835         38.70
     1.054669          0.00
     1.054597          0.71
     1.053631          6.36
     1.052840          2.63
     1.052170          3.80
     1.051915          2.85
     1.050690          0.00
     1.047970          2.76
     1.047542         29.65
     1.047459          0.06
     1.046665          7.05
     1.045425          1.50
     1.045353          1.06
     1.045138          0.12
     1.044660          0.41
     1.044393          0.00
     1.043065          0.74
     1.041316          0.59
     1.041104          0.92
     1.040794          0.28
     1.039438          0.80
     1.039425          0.83
     1.039091          4.02
     1.038604          0.00
     1.037147          0.10
     1.036572         15.65
     1.036081          0.06
     1.034121          0.01
     1.034079          0.70
     1.032214          0.09
     1.032065          3.58
     1.031820          0.60
     1.031114          0.30
     1.030707          1.30
     1.028335          0.35
     1.027424         20.23
     1.024441          1.18
     1.024116          1.51
     1.022968          0.67
     1.021455          0.74
     1.019776          0.01
     1.018976          0.16
     1.018172          0.05
     1.016729          5.50
     1.016560          3.08
     1.016547         19.07
     1.015844          0.72
     1.015020          4.00
     1.014160          0.15
     1.014140          4.58
     1.014076          2.48
     1.014002          0.19
     1.013444          0.06
     1.012694          0.58
     1.012098          4.40
     1.011572          3.84
     1.011536          0.13
     1.010977          1.34
     1.010602          0.20
     1.010070         19.77
     1.009923          0.22
     1.009561         15.40
     1.006579         27.26
##############################################################################
###                            Comments                                    ###
##############################################################################
###   Diffraction pattern calculated by Match!. 
###   I/Ic calculated by Match!. 
##############################################################################


