##############################################################################
###               Crystal structure data exported by Match!                ###
##############################################################################
###                           Data published by:                           ###
###                                                                        ###
###               COD (Crystallography Open Database)
##############################################################################
data_9010313
_citation_journal_full    'American Mineralogist'
_citation_journal_volume  '92'
_citation_page_first  '1464'
_citation_page_last   '1473'
_citation_year  '2007'
_citation_title  'Jarosite - hydronium jarosite solid solution series withfull iron occupancy: Mineralogy and crystal chemistryLocality: syntheticSample: G'
loop_
_publ_author_name
  'Basciano L. C.'
  'Peterson R. C.'
_chemical_formula_sum  'Fe3 H6.3 K0.7 O14 S2'
_chemical_name_mineral  'Jarosite'
_symmetry_space_group_name_H-M 'R -3 m'
_space_group_IT_number 166
_space_group_crystal_system 'trigonal (hexagonal axes)'
loop_
_symmetry_equiv_pos_as_xyz
   'x, y, z'
   'x+0.66667, y+0.33333, z+0.33333'
   'x+0.33333, y+0.66667, z+0.66667'
   '-y, x-y, z'
   '-y+0.66667, x-y+0.33333, z+0.33333'
   '-y+0.33333, x-y+0.66667, z+0.66667'
   '-x+y, -x, z'
   '-x+y+0.66667, -x+0.33333, z+0.33333'
   '-x+y+0.33333, -x+0.66667, z+0.66667'
   'x-y, -y, -z'
   'x-y+0.66667, -y+0.33333, -z+0.33333'
   'x-y+0.33333, -y+0.66667, -z+0.66667'
   '-x, -x+y, -z'
   '-x+0.66667, -x+y+0.33333, -z+0.33333'
   '-x+0.33333, -x+y+0.66667, -z+0.66667'
   'y, x, -z'
   'y+0.66667, x+0.33333, -z+0.33333'
   'y+0.33333, x+0.66667, -z+0.66667'
   '-x, -y, -z'
   '-x+0.66667, -y+0.33333, -z+0.33333'
   '-x+0.33333, -y+0.66667, -z+0.66667'
   'y, -x+y, -z'
   'y+0.66667, -x+y+0.33333, -z+0.33333'
   'y+0.33333, -x+y+0.66667, -z+0.66667'
   'x-y, x, -z'
   'x-y+0.66667, x+0.33333, -z+0.33333'
   'x-y+0.33333, x+0.66667, -z+0.66667'
   '-x+y, y, z'
   '-x+y+0.66667, y+0.33333, z+0.33333'
   '-x+y+0.33333, y+0.66667, z+0.66667'
   'x, x-y, z'
   'x+0.66667, x-y+0.33333, z+0.33333'
   'x+0.33333, x-y+0.66667, z+0.66667'
   '-y, -x, z'
   '-y+0.66667, -x+0.33333, z+0.33333'
   '-y+0.33333, -x+0.66667, z+0.66667'
_cell_length_a        7.31120
_cell_length_b        7.31120
_cell_length_c       17.17920
_cell_angle_alpha    90.0000
_cell_angle_beta     90.0000
_cell_angle_gamma   120.0000
loop_
_atom_site_label
_atom_site_fract_x
_atom_site_fract_y
_atom_site_fract_z
_atom_site_occupancy
_atom_site_B_iso_or_equiv
k      0.000   0.000   0.000    0.70000    0.300
o      0.000   0.000   0.000    0.30000    0.300
fe      0.167   -0.167   -0.167    1.00000    1.260
s      0.000   0.000   0.309    1.00000    1.200
o      0.000   0.000   0.396    1.00000    2.300
o      0.221   -0.221   -0.055    1.00000    2.499
o      0.127   -0.127   0.135    1.00000    0.400
h      0.173   -0.173   0.107    1.00000    1.999
_cell_measurement_wavelength    1.541874
_cell_measurement_radiation   'x-rays'
_exptl_crystal_density_diffrn    3.066000
loop_
_pd_peak_d_spacing
_pd_peak_intensity
     5.941012        292.21
     5.726400        280.03
     5.096650        636.84
     3.655600         81.86
     3.554286         44.00
     3.113417        707.05
     3.081276       1000.00
     3.019872          8.92
     2.970506        121.43
     2.863200        184.77
     2.548325        235.58
     2.370264         16.29
     2.328197         12.19
     2.305349         15.85
     2.288293        313.67
     2.254097          1.11
     2.110562          2.59
     2.090512          0.21
     2.033625          3.50
     1.980337        318.29
     1.963746          7.09
     1.939623         96.65
     1.908800         47.75
     1.827800        329.90
     1.777143         51.91
     1.746990          4.61
     1.741251         51.46
     1.720505         36.65
     1.713380         26.02
     1.698883          0.33
     1.692023         24.17
     1.657977          0.63
     1.625462         27.32
     1.598286         44.66
     1.576244         41.83
     1.563687         38.74
     1.556709         57.15
     1.540638        160.41
     1.516301          0.66
     1.509936        195.87
     1.485253         60.86
     1.447423         20.21
     1.437682         25.48
     1.432253         24.48
     1.431600          2.87
     1.428134         30.81
     1.415696         32.12
     1.400595         32.55
     1.395574          0.01
     1.381687          6.79
     1.376016          9.69
     1.359411          5.05
     1.343143         82.41
     1.337931          0.28
     1.333025          1.27
     1.330226         20.98
     1.320157         26.82
     1.307886          1.01
     1.293603         15.46
     1.274162          6.06
     1.262911          0.01
     1.252796          1.09
     1.250037         60.66
     1.244374          1.69
     1.228027         11.30
     1.219500          3.56
     1.218533         18.51
     1.214638          0.26
     1.204671          0.23
     1.203172          0.29
     1.193684         23.72
     1.191848         17.85
     1.188202          0.00
     1.185132         14.60
     1.184762          7.54
     1.167008          0.51
     1.164098         32.68
     1.156827         36.72
     1.152675         33.87
     1.145280          0.36
     1.144146          8.25
     1.134721          0.88
     1.130009         35.36
     1.127367          7.21
     1.127049         20.92
     1.125355          2.90
     1.121218          0.01
     1.119239         12.76
     1.111732         14.94
     1.109216          0.17
     1.099319          1.18
     1.092899          2.03
     1.091914          9.49
     1.090797          3.93
     1.079605          9.32
     1.075545          1.54
     1.063633          0.11
     1.058587          0.14
     1.055908         18.05
     1.055281         18.25
     1.045256         16.70
     1.039017          0.50
     1.037806          4.52
     1.033363          1.82
     1.031813          4.77
     1.027092          1.60
     1.019330          0.00
     1.016813         23.65
     1.014437          0.78
     1.013881          0.71
     1.011634          0.04
     1.006624          0.53
##############################################################################
###                            Comments                                    ###
##############################################################################
###   Diffraction pattern calculated by Match!. 
###   I/Ic calculated by Match!. 
##############################################################################


