##############################################################################
###               Crystal structure data exported by Match!                ###
##############################################################################
###                           Data published by:                           ###
###                                                                        ###
###               COD (Crystallography Open Database)
##############################################################################
data_9009715
_citation_journal_full    'Bulletin de Mineralogie'
_citation_journal_volume  '107'
_citation_page_first  '641'
_citation_page_last   '648'
_citation_year  '1984'
_citation_title  'Structure cristalline de la langite, Cu4[SO4(OH)6H2O]*H2O Locality: Mazega, Aveyrone, France'
loop_
_publ_author_name
  'Galy J.'
  'Jaud J.'
  'Pulou R.'
  'Sempere R.'
_chemical_formula_sum  'Cu4 H10 O12 S'
_chemical_name_mineral  'Langite'
_symmetry_space_group_name_H-M 'P 1 c 1'
_space_group_IT_number 7
_space_group_crystal_system 'monoclinic'
loop_
_symmetry_equiv_pos_as_xyz
   'x, y, z'
   'x, -y, z+0.5'
_cell_length_a        7.11800
_cell_length_b        6.03400
_cell_length_c       11.20900
_cell_angle_alpha    90.0000
_cell_angle_beta     90.0200
_cell_angle_gamma    90.0000
loop_
_atom_site_label
_atom_site_fract_x
_atom_site_fract_y
_atom_site_fract_z
_atom_site_occupancy
_atom_site_B_iso_or_equiv
cu      -0.007   0.497   0.002    1.00000    1.000
cu      0.000   -0.008   0.000    1.00000    1.000
cu      -0.016   0.246   0.250    1.00000    1.000
cu      -0.010   0.745   0.249    1.00000    1.000
s      0.419   0.682   0.082    1.00000    1.000
o      0.139   0.245   0.059    1.00000    1.000
o      -0.267   -0.759   -0.096    1.00000    1.000
o      0.112   0.497   -0.161    1.00000    1.000
o      -0.143   -0.255   -0.056    1.00000    1.000
o      0.215   0.732   0.091    1.00000    1.000
o      -0.126   -0.504   0.164    1.00000    1.000
o      -0.119   -0.009   0.159    1.00000    1.000
o      0.111   0.006   -0.163    1.00000    1.000
o      0.519   0.893   0.079    1.00000    1.000
o      0.480   0.551   0.186    1.00000    1.000
o      0.457   0.562   -0.029    1.00000    1.000
o      0.479   0.081   0.302    1.00000    1.000
_cell_measurement_wavelength    1.541874
_cell_measurement_radiation   'x-rays'
_exptl_crystal_density_diffrn    3.369000
loop_
_pd_peak_d_spacing
_pd_peak_intensity
     7.118000       1000.00
     6.034000          4.77
     5.604499         25.93
     5.313082         59.27
     4.602739          4.75
     4.404124         12.26
     4.402630          9.53
     4.258090         23.37
     4.257415         21.59
     4.106432          5.72
     3.559000        338.38
     3.557349          2.96
     3.556561          3.67
     3.176638          9.05
     3.065493          3.90
     3.017000          0.58
     3.004885          9.43
     3.003936          5.41
     2.957133         14.00
     2.956681         17.90
     2.913315          4.36
     2.901187          5.59
     2.900546         18.17
     2.802250         72.47
     2.777782          0.24
     2.696309          3.84
     2.696138          3.94
     2.689808          2.57
     2.689127          1.98
     2.656541        103.44
     2.607773        155.10
     2.607153         33.91
     2.541545          3.35
     2.488990         55.00
     2.488720        269.83
     2.393783          4.98
     2.393303          2.57
     2.372667         19.87
     2.370268          1.47
     2.369569          0.57
     2.347296          0.46
     2.301369          8.21
     2.254445          4.64
     2.254245          0.09
     2.229358          0.01
     2.229068          2.11
     2.208093          0.51
     2.202062        100.70
     2.201315         37.54
     2.185208          4.42
     2.184660          1.39
     2.166591          0.43
     2.166324          3.20
     2.129045         63.71
     2.128707        158.31
     2.101452          0.27
     2.068614          1.25
     2.067995          2.37
     2.054623          0.46
     2.054168          0.67
     2.053216          0.64
     2.015631          0.72
     2.015273          4.78
     2.011333          0.09
     1.979714          1.24
     1.972917          5.12
     1.972648          2.39
     1.959689          0.49
     1.959294          1.50
     1.935545          0.48
     1.907348          1.07
     1.907287          0.43
     1.901218          0.63
     1.900678          0.14
     1.893114          0.47
     1.868166          0.05
     1.865020          0.97
     1.839810          1.17
     1.839647          1.20
     1.829567          0.51
     1.829460          0.60
     1.811085         44.21
     1.810461         23.36
     1.809809          0.07
     1.809291          0.54
     1.807123          1.61
     1.806813          0.65
     1.799420          0.37
     1.784591          0.23
     1.779500         25.05
     1.778674          0.82
     1.778281          1.41
     1.771027          0.01
     1.769757         52.34
     1.769466         93.81
     1.751050          0.20
     1.744655          0.63
     1.744423          0.13
     1.734634          2.18
     1.734087          0.74
     1.731152          0.20
     1.730880          0.17
     1.730112          0.73
     1.730022          1.52
     1.718696          0.20
     1.718563          1.00
     1.706823          0.99
     1.696230          0.35
     1.695888          0.59
     1.687457          0.87
     1.687289          0.06
     1.671454          0.22
     1.671291          0.35
     1.668870          0.04
     1.668504          1.05
     1.654367          1.35
     1.653892          0.13
     1.634002          0.71
     1.632936          0.93
     1.632631          0.55
     1.606020          0.31
     1.605658          0.09
     1.595486          0.13
     1.595060          0.25
     1.592649          0.70
     1.592508          0.89
     1.588319         76.13
     1.585667          0.08
     1.585457          0.89
     1.573395          0.41
     1.572884          0.50
     1.552791          0.54
     1.552699          1.47
     1.552398          1.77
     1.552307          1.53
     1.550292         36.21
     1.550096         38.01
     1.547714          2.18
     1.534246          0.38
     1.532746          1.28
     1.520119          0.96
     1.520027          0.17
     1.518676          1.76
     1.518553          0.14
     1.512481          0.37
     1.512269          0.57
     1.508500         24.72
     1.502443         14.23
     1.501968         18.22
     1.497098          0.36
     1.495022          1.02
     1.485087          0.44
     1.484858          0.51
     1.479885          0.24
     1.479714          0.51
     1.478567         36.94
     1.478340         27.62
     1.475724         42.03
     1.468041          0.04
     1.467543          0.32
     1.465113          0.37
     1.464975          0.97
     1.463112          0.15
     1.463085          0.38
     1.457927          0.15
     1.457494          0.63
     1.456658          0.01
     1.450593         23.61
     1.450273         25.98
     1.433931          0.55
     1.433544          0.15
     1.427107          0.02
     1.427056          0.13
     1.426431          0.19
     1.425974          0.24
     1.423600          6.50
     1.419490          0.44
     1.419363          0.26
     1.419138          1.33
     1.418213          0.49
     1.417914          0.70
     1.414411          0.11
     1.401125          5.01
     1.398797          0.53
     1.388891         14.59
     1.387369          0.12
     1.387206          0.13
     1.385560          0.14
     1.380091          0.33
     1.379898          0.72
     1.379861          0.43
     1.379668          0.78
     1.378373          0.14
     1.378327          0.26
     1.375151          0.80
     1.375037          1.53
     1.374835          7.05
     1.374653         16.95
     1.372579          1.84
     1.372511          1.05
     1.368811          0.39
     1.364813          0.07
     1.358235          0.16
     1.357797          0.52
     1.348155          0.63
     1.348069          0.06
     1.345874          0.35
     1.345618          0.26
     1.345171          0.14
     1.344959          0.07
     1.344904          2.27
     1.344564          0.04
     1.344246          0.21
     1.344118          0.30
     1.340480          0.22
     1.340312          0.13
     1.332759          0.17
     1.328271         12.20
     1.323478          0.45
     1.323397          0.33
     1.320061          8.29
     1.319698         11.57
     1.314554          0.15
     1.314275          0.09
     1.305770         19.89
     1.305692          7.14
     1.303887          4.86
     1.303576          6.94
     1.301913          0.06
     1.301797          0.48
     1.299255          0.05
     1.298967          0.20
     1.296678          0.36
     1.296526          0.16
     1.296501          0.11
     1.296101          0.44
     1.288727          0.38
     1.288278          0.55
     1.287469          1.46
     1.279105          0.24
     1.279013          0.28
     1.277687          0.39
     1.277468          0.23
     1.274470          0.09
     1.274181          0.05
     1.272998          9.72
     1.270773          0.10
     1.269388          5.97
     1.269030          8.54
     1.266257          0.42
     1.265991          0.04
     1.265458          0.26
     1.265103          0.07
     1.264894          0.08
     1.264841          0.33
     1.260303          0.08
     1.259883          0.10
     1.255394          0.31
     1.255186          0.49
     1.254872         15.20
     1.254699         14.76
     1.252755          0.13
     1.251537          0.55
     1.251061          0.02
     1.250924          0.11
     1.244495         21.27
     1.244360          8.43
     1.242197          0.63
     1.241862          0.11
     1.241429          0.47
     1.241328          0.41
     1.233849          0.17
     1.233734          0.17
     1.232670          0.79
     1.232588          0.47
     1.219733          0.51
     1.217349          0.08
     1.217112          0.44
     1.215083          0.15
     1.214754          0.22
     1.206800          0.21
     1.206652          6.59
     1.206283         10.51
     1.205049          0.76
     1.204911          0.30
     1.203692          0.34
     1.203448          0.36
     1.202279          0.00
     1.202142          0.78
     1.199866          0.02
     1.196892          0.88
     1.196652          0.39
     1.189821          0.22
     1.186333          4.35
     1.185783          0.10
     1.185520          0.07
     1.185134          8.91
     1.184784          6.94
     1.183225          0.21
     1.183181          0.03
     1.183166          0.03
     1.182877          0.06
     1.181787          0.01
     1.181584          0.50
     1.180736          0.08
     1.180592          0.57
     1.179760          0.21
     1.178795          0.42
     1.178437          0.34
     1.173648          0.12
     1.170041          0.60
     1.169761          0.73
     1.168004          0.11
     1.167614          0.06
     1.164049          0.20
     1.163895          0.11
     1.163868          0.11
     1.161991          0.36
     1.160699          0.31
     1.160535          0.27
     1.159094         12.20
     1.158930          8.45
     1.158053          0.07
     1.157972          0.01
     1.157863          0.22
     1.157781          0.18
     1.155830          0.33
     1.155763          0.28
     1.153972          0.27
     1.153730          0.09
     1.151211          0.15
     1.150685          5.54
     1.149672          0.13
     1.148384          0.08
     1.145731          0.07
     1.145468          0.33
     1.144695          0.01
     1.144643          0.13
     1.142884          0.22
     1.139803          0.19
     1.139647          0.16
     1.137857          0.11
     1.137729          0.39
     1.137002          0.16
     1.136976          0.10
     1.136502          0.31
     1.136386          0.21
     1.135014          0.03
     1.134912          0.05
     1.133743          0.05
     1.133705          0.13
     1.132498          0.77
     1.132117          0.20
     1.127223          0.08
     1.127122          0.18
     1.120900          0.16
     1.120367          0.31
     1.120072          0.34
     1.119862          0.09
     1.119813          0.03
     1.116604          0.32
     1.116299          0.15
     1.114679          0.47
     1.114534          0.06
     1.113064          0.09
     1.112702          0.16
     1.111470          0.48
     1.111254          0.23
     1.109660          0.08
     1.109481          0.18
     1.108387          0.34
     1.107943          0.13
     1.107693          0.05
     1.107419          0.13
     1.107314          0.52
     1.107196          0.56
     1.107087          0.11
     1.107065          0.45
     1.106887          0.10
     1.104046          0.14
     1.102046          0.04
     1.101031          4.89
     1.100657          3.60
     1.099784          0.10
     1.099644          0.30
     1.098764          0.39
     1.098695          0.06
     1.098008          0.23
     1.095438          0.07
     1.095231          0.24
     1.095211          0.21
     1.095166          0.39
     1.094100          0.13
     1.093916          0.05
     1.092933          0.12
     1.092864          0.19
     1.092604          3.52
     1.092330          6.32
     1.089127          0.10
     1.089014          0.10
     1.085212          0.28
     1.085133          0.48
     1.085097          0.30
     1.084937          0.05
     1.084829          0.18
     1.084635          0.08
     1.083295         10.85
     1.083162          4.56
     1.083146          0.14
     1.082791          0.04
     1.075658          0.05
     1.075120          0.05
     1.074860          0.28
     1.073477          0.06
     1.073260          0.21
     1.070755          0.12
     1.070723          0.08
     1.069236          0.22
     1.069022          0.10
     1.064523          7.14
     1.064354          7.58
     1.062616          0.53
     1.060261          5.81
     1.059949          4.64
     1.058884          0.15
     1.058879          0.01
     1.058697          0.28
     1.058296          0.15
     1.058213          0.14
     1.056408          0.04
     1.056346          0.04
     1.052834          0.03
     1.052630          0.09
     1.052075          0.03
     1.051891          0.28
     1.050995          0.10
     1.050944          0.05
     1.050726          5.08
     1.049280          0.25
     1.049139          0.03
     1.047948          0.24
     1.047595          0.25
     1.047399          0.12
     1.047309          0.03
     1.039511          7.93
     1.039413          3.85
     1.035866          0.25
     1.035603          0.12
     1.035351          4.56
     1.034729          0.09
     1.034496          0.06
     1.034307          0.27
     1.033997          0.02
     1.033718          0.03
     1.033631          0.24
     1.033226          0.23
     1.032937          0.15
     1.031762          0.38
     1.031522          0.27
     1.030986          0.26
     1.030938          0.37
     1.027312          0.09
     1.027084          0.30
     1.026608          5.05
     1.024503          0.00
     1.024240          0.03
     1.023800          0.02
     1.023612          0.49
     1.021831          0.19
     1.018248          0.33
     1.018170          0.23
     1.018155          0.16
     1.018077          0.25
     1.017639          0.12
     1.017584          0.14
     1.016857          3.94
     1.016131          2.89
     1.016058          6.49
     1.014994          0.02
     1.014830          0.19
     1.013691          0.14
     1.013631          0.00
     1.013357          0.37
     1.007815          8.06
     1.007636          5.28
##############################################################################
###                            Comments                                    ###
##############################################################################
###   Diffraction pattern calculated by Match!. 
###   I/Ic calculated by Match!. 
##############################################################################


