##############################################################################
###               Crystal structure data exported by Match!                ###
##############################################################################
###                           Data published by:                           ###
###                                                                        ###
###               COD (Crystallography Open Database)
##############################################################################
data_9009517
_citation_journal_full    'Mineralogical Magazine'
_citation_journal_volume  '64'
_citation_page_first  '905'
_citation_page_last   '913'
_citation_year  '2000'
_citation_title  'The crystal structure of faustite and its copper analogue turquoiseLocality: Iron Monarch iron ore deposit, South Australia'
loop_
_publ_author_name
  'Kolitsch U.'
  'Giester G.'
_chemical_formula_sum  'Al3 Cu0.452 H8 O14 P2'
_chemical_name_mineral  'Turquoise'
_symmetry_space_group_name_H-M 'P -1'
_space_group_IT_number 2
_space_group_crystal_system 'triclinic'
loop_
_symmetry_equiv_pos_as_xyz
   'x, y, z'
   '-x, -y, -z'
_cell_length_a        7.41000
_cell_length_b        7.63300
_cell_length_c        9.90400
_cell_angle_alpha    68.4200
_cell_angle_beta     69.6500
_cell_angle_gamma    65.0500
loop_
_atom_site_label
_atom_site_fract_x
_atom_site_fract_y
_atom_site_fract_z
_atom_site_occupancy
_atom_site_B_iso_or_equiv
cu      0.000   0.000   0.000    0.87400    0.690
al      0.283   0.177   0.753    1.00000    0.583
al      0.753   0.186   0.273    1.00000    0.539
al      0.245   0.502   0.245    1.00000    0.450
p      0.350   0.386   0.943    1.00000    0.480
p      0.843   0.387   0.456    1.00000    0.426
o      0.068   0.363   0.385    1.00000    0.702
o      0.804   0.345   0.626    1.00000    0.615
o      0.277   0.356   0.113    1.00000    0.663
o      0.063   0.066   0.198    1.00000    1.026
o      0.238   0.073   0.628    1.00000    0.639
o      0.736   0.083   0.124    1.00000    0.592
o      0.296   0.404   0.607    1.00000    0.702
o      0.325   0.223   0.906    1.00000    0.797
o      0.986   0.281   0.844    1.00000    0.694
o      0.574   0.049   0.686    1.00000    0.892
o      0.785   0.409   0.131    1.00000    0.734
o      0.465   0.294   0.326    1.00000    0.631
o      0.788   0.229   0.431    1.00000    0.631
o      0.577   0.366   0.898    1.00000    0.647
h      0.128   -0.028   0.224    1.00000    2.526
h      0.116   0.132   0.176    1.00000    3.158
h      0.628   0.117   0.609    1.00000    3.158
h      0.608   -0.057   0.679    1.00000    2.763
h      0.204   0.129   0.573    1.00000    1.816
h      0.691   0.143   0.074    1.00000    1.421
h      0.987   0.318   0.889    1.00000    2.289
h      0.448   0.287   0.397    1.00000    1.658
cu      0.500   0.000   0.500    0.03000    1.579
_cell_measurement_wavelength    1.541874
_cell_measurement_radiation   'x-rays'
_exptl_crystal_density_diffrn    2.916000
loop_
_pd_peak_d_spacing
_pd_peak_intensity
     8.966246        125.50
     6.682462        107.46
     6.540816         55.93
     6.183867         59.08
     6.165280        459.89
     5.973748        200.26
     5.740854         65.11
     4.793826         34.53
     4.788940        224.63
     4.605205         50.44
     4.483123          8.82
     4.272380          6.90
     4.168536         33.65
     4.108115          4.48
     4.042469         21.84
     3.796444          8.95
     3.707752        120.11
     3.695737         27.34
     3.663126       1000.00
     3.501911         29.42
     3.490072         23.34
     3.437062         23.55
     3.429186        420.32
     3.404672        132.25
     3.357474         20.33
     3.342386        133.70
     3.341231          2.82
     3.326789          9.76
     3.281359        130.37
     3.270408        284.72
     3.148730         23.25
     3.091933         22.80
     3.082640         85.23
     3.038731         53.68
     3.026612          7.11
     2.988749         11.21
     2.988714         15.82
     2.986874          1.73
     2.978354         15.31
     2.974260         29.98
     2.903948        687.95
     2.894262         14.20
     2.890472        295.12
     2.870427         49.18
     2.868682         51.83
     2.866037          9.86
     2.837535         19.10
     2.726888         28.27
     2.637057         12.53
     2.611172         13.94
     2.610495          1.15
     2.586893          3.38
     2.562572         11.96
     2.521823         65.53
     2.510258        103.99
     2.510196         14.14
     2.496964         10.85
     2.494375          9.95
     2.473303         31.43
     2.455786         25.78
     2.453815         13.57
     2.448857          4.63
     2.448002          0.04
     2.432617         34.51
     2.422023         24.98
     2.410289         16.51
     2.402170          7.38
     2.396913         48.94
     2.394507          2.94
     2.394470         57.98
     2.385881          1.73
     2.384892          7.75
     2.365972          6.34
     2.362995          4.90
     2.353756          8.30
     2.342991          7.04
     2.339546         78.95
     2.335579          8.68
     2.315683          3.15
     2.314428         62.31
     2.312441         62.59
     2.306718          4.19
     2.302602        121.56
     2.299733         35.76
     2.296858          4.14
     2.286749          5.15
     2.283907         48.11
     2.252285          2.73
     2.241561          5.49
     2.240517          2.67
     2.239234          2.53
     2.227487         36.56
     2.223472         25.32
     2.222298        101.08
     2.195877          0.72
     2.180648         54.02
     2.180272         17.34
     2.168268          1.29
     2.164829         15.13
     2.136190          0.66
     2.112889         12.68
     2.108577        123.70
     2.098743          1.27
     2.084268          0.99
     2.080732         16.48
     2.062852        163.84
     2.061289          9.56
     2.058028          1.63
     2.055093         42.10
     2.054058         19.27
     2.049825          0.77
     2.041119          3.78
     2.031469          0.00
     2.026659          5.58
     2.021235         44.92
     2.015466        284.45
     1.991301          6.34
     1.991249          0.67
     1.985921          5.52
     1.985688          6.13
     1.978626          0.00
     1.975872          0.79
     1.974295          1.16
     1.973926          0.67
     1.971461          4.44
     1.965136          3.19
     1.964957          2.13
     1.959043         12.60
     1.947056          5.47
     1.941187          0.73
     1.934216         11.29
     1.933065          0.10
     1.926246         20.37
     1.925294          0.58
     1.920255          5.84
     1.913618          2.53
     1.908907          1.67
     1.907989          2.06
     1.900757         90.14
     1.898222         29.90
     1.893075         17.59
     1.891891          1.12
     1.875018          1.81
     1.874913          0.30
     1.874195          5.33
     1.858838          6.27
     1.857301         27.43
     1.857102          2.37
     1.855289          3.26
     1.853876          0.51
     1.847868         63.27
     1.840359          2.33
     1.839928        119.21
     1.837821          1.63
     1.836859          1.91
     1.831563         64.76
     1.827525          0.10
     1.824688          0.25
     1.820018          0.01
     1.815508        145.36
     1.813487          1.27
     1.812605         17.48
     1.812121         12.33
     1.811474          3.24
     1.809766          0.80
     1.807261         44.57
     1.806201          6.70
     1.805202          0.49
     1.804008          0.43
     1.793249          0.09
     1.785360          7.35
     1.782648         64.90
     1.779195          0.51
     1.775792          6.49
     1.772852         42.44
     1.767846          1.86
     1.766588          3.19
     1.764438          7.06
     1.752068          4.89
     1.750955          0.35
     1.749917          3.33
     1.748491          2.59
     1.745072          1.42
     1.745036          0.06
     1.738812          2.65
     1.735124          4.42
     1.728569         10.28
     1.727901          3.60
     1.726459         18.06
     1.725137          1.65
     1.722702         42.00
     1.722127          0.92
     1.720312          0.00
     1.718531         22.00
     1.718490          8.29
     1.714593         18.12
     1.702336          0.74
     1.700906          2.95
     1.697797          3.66
     1.692930          2.79
     1.689874          0.69
     1.686999          3.65
     1.678737          2.10
     1.677740          8.79
     1.672573          4.26
     1.671193         18.29
     1.670913          1.94
     1.670615          6.23
     1.665258          3.73
     1.663394         14.59
     1.661888          3.85
     1.652803          3.24
     1.649110          0.05
     1.640679          0.03
     1.636714          1.48
     1.636579          1.31
     1.635204         39.38
     1.634472          1.31
     1.633148         46.55
     1.629474         25.00
     1.629144          2.43
     1.624424          1.06
     1.623703          2.40
     1.619845          2.23
     1.619837          5.63
     1.618518          1.54
     1.617364          6.13
     1.614671          3.02
     1.607558          5.11
     1.606942          5.19
     1.606242         29.37
     1.605788          1.03
     1.602168          0.18
     1.600417         31.68
     1.598948          2.35
     1.597942          2.79
     1.596987          2.49
     1.596313          4.14
     1.596276          0.33
     1.596180          0.60
     1.591932         24.49
     1.586716          7.21
     1.583261         15.87
     1.581627          0.41
     1.580113         67.32
     1.578928          4.04
     1.574365          2.11
     1.573234          5.78
     1.572358          8.29
     1.570443          1.60
     1.567670         63.44
     1.564612          3.61
     1.560788          5.82
     1.560272          5.47
     1.559944          1.30
     1.551646          1.47
     1.549653         11.63
     1.547484          0.20
     1.546539         48.48
     1.546078          3.20
     1.545967         15.17
     1.544318          3.19
     1.541320         12.69
     1.539974          4.73
     1.537157          3.76
     1.536794         10.19
     1.536326         11.15
     1.535068          0.00
     1.534963          0.02
     1.526979         26.51
     1.524565          3.51
     1.523471          0.73
     1.521410          2.56
     1.519365          0.18
     1.517840          0.75
     1.516098          0.00
     1.513306         12.25
     1.511147         15.23
     1.508831          1.92
     1.508728          3.78
     1.504918         81.73
     1.504211          0.00
     1.501804          2.07
     1.496666          0.00
     1.494374          9.11
     1.494357          4.59
     1.493965          3.07
     1.493437         28.65
     1.490002        110.49
     1.489177          2.47
     1.487130          0.15
     1.486538          2.82
     1.485042          1.15
     1.483971          0.00
     1.483694          3.56
     1.482883          2.11
     1.482471          0.95
     1.479585          0.18
     1.477501         43.25
     1.477183         35.78
     1.474309          5.84
     1.471004         10.60
     1.470158         24.76
     1.469828         20.08
     1.467859         11.10
     1.467361          1.65
     1.463338          0.21
     1.462815         19.31
     1.461531          6.02
     1.457536          0.68
     1.456382          2.25
     1.452069          0.48
     1.451974         45.13
     1.451697          0.52
     1.449741         12.93
     1.447131          0.00
     1.445236          0.58
     1.439822          4.45
     1.439253          0.01
     1.439249          7.19
     1.437243          3.20
     1.436683          1.10
     1.435214         24.67
     1.434341         11.45
     1.433813          0.30
     1.433018         10.85
     1.432427          5.29
     1.427281         16.56
     1.425365          6.12
     1.424215          0.01
     1.424127         44.87
     1.423604          2.38
     1.423442          0.44
     1.422167         25.36
     1.421383         15.15
     1.420436          0.65
     1.418767          1.30
     1.416106         20.32
     1.415512          6.44
     1.413855          3.42
     1.413780          2.41
     1.411461          5.98
     1.410561          1.67
     1.410496          6.96
     1.410166          0.95
     1.409092          0.21
     1.407544         36.23
     1.405680          0.92
     1.396649          0.72
     1.396168          3.67
     1.395435          3.28
     1.395202          3.94
     1.394360          0.04
     1.393336          2.44
     1.392768          3.51
     1.392269          5.87
     1.391359          6.69
     1.390332          1.47
     1.389540         11.69
     1.389512          0.46
     1.388298          3.63
     1.387188          4.80
     1.385956          2.87
     1.383716          0.05
     1.383471          0.21
     1.383060          5.01
     1.380742          0.28
     1.380527          0.84
     1.380070         13.26
     1.378915          4.46
     1.378757          8.03
     1.375069          0.74
     1.374713          1.62
     1.374099          0.53
     1.372389          0.81
     1.371357         21.57
     1.369372          2.75
     1.368252          0.35
     1.367623          1.28
     1.365217          1.13
     1.365060          6.39
     1.364856          3.47
     1.363444          5.72
     1.363226          2.65
     1.362801          1.34
     1.362310          1.60
     1.360213          0.50
     1.358864          1.40
     1.356765          0.03
     1.356552          3.47
     1.354875         15.73
     1.352303          0.20
     1.352082          0.76
     1.349556         19.84
     1.348996          0.90
     1.347490          0.00
     1.346827          6.64
     1.344982          6.35
     1.344561         46.06
     1.342903          2.07
     1.342804         34.44
     1.340858          0.73
     1.338890          0.52
     1.336930          0.29
     1.336492         13.25
     1.335702         11.17
     1.335049         23.41
     1.332525          0.72
     1.332240          1.33
     1.331790          0.08
     1.330780          0.19
     1.329373         20.39
     1.329018          4.83
     1.327816          4.76
     1.327460          0.55
     1.326843         11.50
     1.326285          0.42
     1.325286          0.44
     1.324847         10.55
     1.323936          2.02
     1.323232          0.08
     1.322666          5.54
     1.321179          7.03
     1.319410          0.60
     1.318528         15.10
     1.316810          8.15
     1.316502          1.81
     1.315872          0.00
     1.314945          3.42
     1.313719          1.50
     1.313692          1.40
     1.308163          1.37
     1.307191          3.88
     1.306761          0.95
     1.306629          0.44
     1.306402          0.95
     1.305922          3.43
     1.305586         14.69
     1.305248          2.89
     1.303628          1.43
     1.302228          0.00
     1.300492          0.90
     1.298667          0.84
     1.297574          2.44
     1.296245          0.72
     1.294164          0.72
     1.293494          0.02
     1.293447          0.03
     1.291570          4.56
     1.288403          0.05
     1.284749          2.47
     1.283752          3.05
     1.281286          7.90
     1.280938          0.57
     1.280892          1.02
     1.280396          0.21
     1.277945          3.56
     1.277019          3.82
     1.274586          0.88
     1.274435          0.49
     1.272007          7.31
     1.270351          7.05
     1.266518         34.30
     1.266440          0.04
     1.265481          8.55
     1.264591          0.18
     1.264225          4.48
     1.262324          0.00
     1.261762          0.00
     1.261407          2.64
     1.261162          0.00
     1.260911         36.50
     1.260313          0.34
     1.260172          0.29
     1.258045          1.05
     1.257937         16.68
     1.256155          2.12
     1.255763          0.00
     1.255129         59.09
     1.255098          0.68
     1.254175          2.20
     1.253991          8.88
     1.253881          0.08
     1.253787          0.36
     1.252777         18.95
     1.252475          0.32
     1.252246          1.47
     1.251766          0.00
     1.251273          4.24
     1.251112          2.44
     1.250145          0.25
     1.248482          8.01
     1.247328          0.04
     1.247187          0.03
     1.246515          1.65
     1.243951          0.08
     1.243526          0.11
     1.241265          2.13
     1.236773          0.72
     1.236652          8.36
##############################################################################
###                            Comments                                    ###
##############################################################################
###   Diffraction pattern calculated by Match!. 
###   I/Ic calculated by Match!. 
###   Space group has been derived from given symmetry operations. 
##############################################################################


