##############################################################################
###               Crystal structure data exported by Match!                ###
##############################################################################
###                           Data published by:                           ###
###                                                                        ###
###               COD (Crystallography Open Database)
##############################################################################
data_1010542
_citation_journal_full    'Proceedings of the Royal Society of London, Series A: Mathematical andPhysical Sciences (76,1906-)'
_citation_journal_volume  '109'
_citation_page_first  '598'
_citation_page_last   '620'
_citation_year  '1925'
_citation_title  'The Crystal Structures of Barytes, Celestine and Anglesite'
loop_
_publ_author_name
  'James R W'
_chemical_formula_sum  'Ba O4 S'
_chemical_name_common  'Barium sulfate'
_symmetry_space_group_name_H-M 'P n m a'
_space_group_IT_number 62
_space_group_crystal_system 'orthorhombic'
loop_
_symmetry_equiv_pos_as_xyz
   'x, y, z'
   '-x+0.5, -y, z+0.5'
   'x+0.5, -y+0.5, -z+0.5'
   '-x, y+0.5, -z'
   '-x, -y, -z'
   'x+0.5, y, -z+0.5'
   '-x+0.5, y+0.5, z+0.5'
   'x, -y+0.5, z'
_cell_length_a        8.85000
_cell_length_b        5.43000
_cell_length_c        7.13000
_cell_angle_alpha    90.0000
_cell_angle_beta     90.0000
_cell_angle_gamma    90.0000
_cell_formula_units_Z 4
loop_
_atom_site_label
_atom_site_fract_x
_atom_site_fract_y
_atom_site_fract_z
_atom_site_occupancy
_atom_site_B_iso_or_equiv
ba      0.318   0.250   0.339    1.00000    1.000
s      0.432   0.250   -0.139    1.00000    1.000
o      -1.000   -1.000   -1.000    -2.55360    1.000
_cell_measurement_wavelength    1.541874
_cell_measurement_radiation   'x-rays'
_exptl_crystal_density_diffrn    4.524000
loop_
_pd_peak_d_spacing
_pd_peak_intensity
     5.552260        341.14
     4.425000        729.79
     4.319889        806.04
     3.882093        508.11
     3.759780        328.09
     3.565000        422.94
     3.430243       1000.00
     3.306789        853.67
     3.091115        786.30
     2.824291        467.61
     2.776130          3.17
     2.725896        457.20
     2.715000        724.30
     2.471815        115.64
     2.439016        130.26
     2.436157         77.47
     2.314136         11.80
     2.295339         98.87
     2.272771          0.21
     2.212500         35.76
     2.201104        152.37
     2.177247          0.11
     2.159945          8.78
     2.114207        359.43
     2.113101        280.18
     2.098353        438.91
     2.096532        328.17
     2.093775          0.05
     2.048943        136.81
     1.969244          3.56
     1.953575          8.85
     1.941047        123.69
     1.923636         26.44
     1.879890          8.87
     1.850753         90.06
     1.782500         93.28
     1.776442         46.25
     1.754354         63.15
     1.752857          0.73
     1.751795         64.34
     1.747409         78.64
     1.742744          0.32
     1.720868         46.35
     1.717859          8.39
     1.715121          1.43
     1.675270        103.70
     1.667554        243.68
     1.663400         37.03
     1.658007          0.03
     1.653394          0.01
     1.637850         37.18
     1.630858         98.60
     1.619403          5.05
     1.587718         66.36
     1.585353          8.05
     1.581695         76.50
     1.551860          0.00
     1.545558         18.76
     1.529243        274.18
     1.525622          1.91
     1.521818         67.60
     1.516205         21.54
     1.507863         14.02
     1.490059         25.93
     1.475000          5.68
     1.469377         82.55
     1.468752         78.88
     1.451676         84.39
     1.444416          9.21
     1.439963          0.01
     1.423419         29.40
     1.421273         87.20
     1.419576         91.42
     1.415866         80.50
     1.412145         32.06
     1.407841          0.05
     1.400933         35.30
     1.395874         88.86
     1.390791          5.64
     1.388065          0.96
     1.379232         29.91
     1.374650          0.97
     1.373417         55.76
     1.369287          2.33
     1.369043          9.28
     1.362948         18.15
     1.362782         13.25
     1.357500         26.65
     1.357264         16.00
     1.344821         15.99
     1.330022          2.26
     1.321941          6.69
     1.318659          2.22
     1.316753         55.48
     1.303871         14.55
     1.297802         24.73
     1.296080         34.74
     1.294031         20.39
     1.283869         12.66
     1.276823         21.93
     1.275183         11.45
     1.268638         20.96
     1.257994         41.94
     1.257150         12.80
     1.255975          5.14
     1.255800         67.03
     1.253260          0.00
     1.249806         15.58
     1.249420          0.03
     1.246011         13.15
     1.244867          0.97
     1.235908          8.78
     1.223668         28.56
     1.221157          2.47
     1.220744         28.63
     1.219508          0.11
     1.218079          0.90
     1.215155         42.64
     1.214016         21.03
     1.213388         17.81
     1.206870          0.00
     1.198613         44.55
     1.192576         26.95
     1.191573         28.30
     1.188333         12.55
     1.177763          2.33
     1.170437          0.62
     1.168448         12.39
     1.166517         33.29
     1.165438          0.08
     1.163879          8.02
     1.160642          0.50
     1.157068          4.47
     1.151000          4.28
     1.147669         17.89
     1.143414         13.09
     1.142126         59.41
     1.139911          7.28
     1.139045          0.01
     1.137880          0.00
     1.136386          8.37
     1.131587          4.44
     1.128989         40.91
     1.122863         36.97
     1.120129         14.00
     1.117008         26.43
     1.116183          1.82
     1.112289         10.95
     1.111264          6.36
     1.110452          0.03
     1.106250         25.31
     1.102263          0.48
     1.101460          7.80
     1.100552          1.06
     1.096510         66.37
     1.094616         32.30
     1.093323         45.49
     1.093170          1.97
     1.091113         42.37
     1.088783          3.39
     1.088624         41.90
     1.087935          0.66
     1.085879         28.34
     1.083983          1.07
     1.080480          3.54
     1.080231          0.92
     1.079972         26.20
     1.073618         10.65
     1.072020         26.68
     1.071669         19.62
     1.065804          8.19
     1.065087          4.81
     1.057103          5.98
     1.056551          1.49
     1.054701         19.61
     1.049177          0.13
     1.048266          0.70
     1.047181          0.02
     1.046888          2.79
     1.043347         20.05
     1.040329          2.10
     1.037101          0.52
     1.032345          0.99
     1.031879         16.73
     1.031782         14.54
     1.031229         13.45
     1.031132          3.52
     1.030372          1.47
     1.027957         31.15
     1.027806          8.57
     1.025692         10.61
     1.025220          3.27
     1.024471         20.50
     1.021302          0.79
     1.014149          0.93
     1.014057          3.25
     1.013121          1.59
     1.011892          0.31
     1.011368          5.37
     1.008881          3.57
     1.007421         38.34
##############################################################################
###                            Comments                                    ###
##############################################################################
###   Diffraction pattern calculated by Match!. 
###   I/Ic calculated by Match!. 
###   Space group has been derived from given symmetry operations. 
##############################################################################


