##############################################################################
###               Crystal structure data exported by Match!                ###
##############################################################################
###                           Data published by:                           ###
###                                                                        ###
###               COD (Crystallography Open Database)
##############################################################################
data_4308975
_citation_journal_full    'Inorganic Chemistry'
_citation_journal_volume  '44'
_citation_page_first  '2376'
_citation_page_last   '2380'
_citation_year  '2005'
_citation_title  'Copper Hydroxydiphosphate with a One-Dimensional Arrangement of Copper Polyhedra: Cu3[P2O6OH]2'
loop_
_publ_author_name
  'Radu Baies'
  'Vincent Caignaert'
  'Valerie Pralong'
  'Bernard Raveau'
_chemical_formula_sum  'Cu3 H2 O14 P4'
_symmetry_space_group_name_H-M 'P -1'
_space_group_IT_number 2
_space_group_crystal_system 'triclinic'
loop_
_symmetry_equiv_pos_as_xyz
   'x, y, z'
   '-x, -y, -z'
_cell_length_a        4.78188
_cell_length_b        7.03692
_cell_length_c        8.35736
_cell_angle_alpha    66.6786
_cell_angle_beta     76.9932
_cell_angle_gamma    72.0642
_cell_formula_units_Z 1
loop_
_atom_site_label
_atom_site_fract_x
_atom_site_fract_y
_atom_site_fract_z
_atom_site_occupancy
_atom_site_B_iso_or_equiv
cu      0.943   0.848   0.429    1.00000    1.000
cu      0.000   0.000   0.000    1.00000    1.000
p      0.630   0.509   0.702    1.00000    1.000
p      0.645   0.846   0.812    1.00000    1.000
o      0.678   0.667   0.519    1.00000    1.000
o      0.818   0.941   0.639    1.00000    1.000
o      0.290   0.512   0.750    1.00000    1.000
o      0.699   0.591   0.840    1.00000    1.000
o      0.778   0.824   0.967    1.00000    1.000
o      0.172   0.723   0.252    1.00000    1.000
o      0.315   0.947   0.810    1.00000    1.000
_cell_measurement_wavelength    1.541874
_cell_measurement_radiation   'x-rays'
_cell_measurement_temperature    291.000000
_exptl_crystal_density_diffrn    3.665000
loop_
_pd_peak_d_spacing
_pd_peak_intensity
     7.620872        121.58
     6.265710        585.67
     5.983183         14.73
     4.517670        218.83
     4.352330        271.32
     4.181689         69.47
     4.172246         63.44
     4.104543        399.18
     3.927367          9.34
     3.810436          0.31
     3.699287         37.44
     3.474593         12.04
     3.340886         50.66
     3.301373       1000.00
     3.227152        188.34
     3.208031        364.43
     3.145462          3.25
     3.132855         73.83
     3.098589        265.82
     2.991591        270.96
     2.982057        103.22
     2.932057         73.39
     2.925195        105.20
     2.841449        603.52
     2.756717        331.61
     2.709950         51.03
     2.627671         86.44
     2.605476        289.81
     2.593972         42.28
     2.540291          0.20
     2.483193          3.83
     2.437457        314.04
     2.430441         31.76
     2.426005          1.80
     2.386089         32.10
     2.380826        199.09
     2.356934         67.13
     2.335162         53.86
     2.322140          8.10
     2.313127         69.22
     2.279278        226.08
     2.276156          1.09
     2.258835          0.28
     2.242677          4.82
     2.238927          4.51
     2.223889          0.19
     2.220925        259.04
     2.187313          3.10
     2.184345          2.27
     2.176165         14.96
     2.117503         44.15
     2.110352          9.20
     2.109571          6.62
     2.106688          7.67
     2.101670          9.13
     2.099227         44.58
     2.094351         19.87
     2.090844         31.11
     2.088570         64.53
     2.086123         13.23
     2.073511          3.58
     2.052271         37.83
     2.033037         10.56
     2.015288         22.20
     2.014840         61.71
     1.994394         32.61
     1.984094         23.64
     1.976329         32.99
     1.974723         33.51
     1.968997         11.45
     1.963683          6.73
     1.923050          0.11
     1.916693          3.27
     1.915815        111.34
     1.909421         44.71
     1.908852          5.94
     1.905218         27.03
     1.900043          8.41
     1.887211         57.44
     1.859535         34.08
     1.854613         89.32
     1.849643         82.32
     1.841955         38.42
     1.834768          3.53
     1.833755         28.87
     1.826875         90.38
     1.818027         15.56
     1.796629         31.10
     1.796347         38.25
     1.788236          1.08
     1.763522          3.93
     1.760027         21.98
     1.756430         52.50
     1.755397         28.87
     1.748811         71.69
     1.746961          5.40
     1.740541          9.27
     1.737296         32.28
     1.726050          7.14
     1.718139         41.99
     1.703168         18.45
     1.701557          0.29
     1.693952          6.26
     1.685679          8.14
     1.670443          3.02
     1.666693          1.70
     1.655382         24.26
     1.654998         21.14
     1.653529         20.73
     1.650686         16.85
     1.647494          2.80
     1.643260          5.02
     1.637746         42.28
     1.623130          6.36
     1.621368          1.61
     1.617645        140.19
     1.613576          8.63
     1.612239         25.16
     1.612095         11.32
     1.610722          5.26
     1.608193         14.40
     1.606610          5.05
     1.604015         25.16
     1.596976          0.03
     1.588129         30.57
     1.587610         93.91
     1.586056         19.49
     1.583450         26.30
     1.582365         13.40
     1.581105          2.16
     1.578729          4.59
     1.577157          1.21
     1.572731         11.85
     1.568833         23.93
     1.566428          0.04
     1.565817         13.07
     1.565803         20.28
     1.564846          4.23
     1.562199          0.44
     1.556414         11.15
     1.553977          0.54
     1.553049          2.26
     1.549295          9.20
     1.544618         50.05
     1.529830         26.74
     1.524174         25.90
     1.511656          0.04
     1.510366          1.01
     1.508982          0.04
     1.505890         50.41
     1.502343         10.91
     1.500970         63.77
     1.498791         34.07
     1.495796         41.44
     1.491028         80.53
     1.484347         14.43
     1.480960          0.66
     1.471107          0.28
     1.468733         19.73
     1.466029          0.15
     1.463239         15.83
     1.463092         21.04
     1.462598         39.84
     1.460678          1.71
     1.457846         57.07
     1.452818          0.99
     1.451586         41.98
     1.450972         16.27
     1.450777          5.03
     1.445230          0.37
     1.439299         20.37
     1.437710          7.85
     1.430817          4.60
     1.428255          0.25
     1.427513          1.39
     1.420724         13.35
     1.410494         19.17
     1.405268          2.33
     1.405144         39.34
     1.404447          3.97
     1.396955         13.33
     1.395635          1.06
     1.395162          5.16
     1.394400         15.68
     1.393896          7.44
     1.392662         83.51
     1.390749          0.19
     1.389484         27.09
     1.389033          9.35
     1.381258          0.26
     1.379246          9.27
     1.378358          6.41
     1.377035          1.50
     1.374998          0.41
     1.374007          5.50
     1.373982          8.58
     1.372571         20.97
     1.370979          8.86
     1.368181          8.50
     1.367502         10.11
     1.366314          0.11
     1.365945          0.15
     1.365006          2.82
     1.364248         33.16
     1.361462         24.14
     1.359154          9.21
     1.357204          8.08
     1.354975          0.98
     1.351650         16.61
     1.349916          6.53
     1.347406         13.13
     1.347176          5.59
     1.346499          9.65
     1.345564         64.08
     1.345423          0.70
     1.343715         23.58
     1.343356         33.44
     1.342022         14.39
     1.340146          1.98
     1.339535          1.09
     1.338867          7.13
     1.338569         45.96
     1.334288          0.19
     1.325285          1.63
     1.324044          7.06
     1.320483          2.33
     1.318159          4.25
     1.317292         51.61
     1.316821          2.06
     1.314474          2.25
     1.313836          5.76
     1.312800          2.28
     1.309122          6.94
     1.306919          5.22
     1.304039         12.79
     1.302738          5.40
     1.302238          3.28
     1.299424          9.63
     1.299132         17.79
     1.298055         20.91
     1.296986         16.38
     1.296345         13.31
     1.295626          3.89
     1.294511          7.10
     1.293929          0.27
     1.292901          8.59
     1.292281          7.43
     1.291660         24.02
     1.282242          0.23
     1.278294         30.05
     1.272911          2.15
     1.270835          2.53
     1.270145          0.43
     1.269060          1.22
     1.263248          0.89
     1.262183          5.08
     1.255739          0.29
     1.254008          4.10
     1.253142          0.01
     1.248890          2.12
     1.243648         20.35
     1.241596          0.87
     1.239906          3.78
     1.237557          3.31
     1.235758          2.38
     1.234853          5.72
     1.233096         19.59
     1.231941          1.51
     1.230950          3.18
     1.226992          4.29
     1.223158         18.29
     1.222252          0.10
     1.219233          1.64
     1.218728          4.87
     1.218428         13.27
     1.216656          4.28
     1.215220          1.41
     1.213002          8.12
     1.212763          4.67
     1.211530          2.18
     1.211067          0.86
     1.210705          0.16
     1.203479          2.48
     1.203233          0.03
     1.202400          2.87
     1.199491          1.16
     1.199256          0.00
     1.197593          2.25
     1.197321          5.38
     1.196637          3.07
     1.196340          8.35
     1.196188          2.63
     1.193044          1.39
     1.190625          0.29
     1.190413         23.83
     1.189805          4.62
     1.189101         12.09
     1.188577         17.87
     1.186774          2.21
     1.184940          2.86
     1.184080          6.13
     1.183697         14.95
     1.182355         15.94
     1.181297          0.00
     1.179750          3.58
     1.178467          0.06
     1.176471          0.31
     1.174610          0.19
     1.174041          4.36
     1.173305          2.16
     1.172185          8.20
     1.171510          5.01
     1.171076          6.22
     1.169554          0.02
     1.169383          0.06
     1.169043          0.52
     1.167776          7.07
     1.167581          7.08
     1.167324          4.88
     1.166098          0.01
     1.164085          0.75
     1.163262          0.17
     1.162803         27.46
     1.162453          1.18
     1.162242          0.87
     1.162183         11.50
     1.161378          0.19
     1.161070          0.02
     1.159037          2.74
     1.158198          6.65
     1.158046          1.10
     1.156564          0.28
     1.155023         14.99
     1.153677          2.08
     1.151791          0.01
     1.150993          0.10
     1.150704          8.45
     1.149954          0.02
     1.148212          2.23
     1.147839          0.03
     1.147575          1.12
     1.147289          1.55
     1.146446          0.70
     1.144770          4.83
     1.143564          0.08
     1.142669          1.63
     1.140679          9.34
     1.140576         29.47
     1.139724          0.45
     1.139652          0.00
     1.139639          5.09
     1.139232          0.01
     1.138078          1.01
     1.137980          0.15
     1.136849          6.31
     1.136135          3.15
     1.135526          2.68
     1.134302          6.04
     1.132269          5.01
     1.129818          4.20
     1.129417          0.05
     1.129303          2.63
     1.121898          7.44
     1.121339          0.04
     1.119463          0.33
     1.118893          9.15
     1.118238          0.53
     1.118181          0.66
     1.115029          9.62
     1.113992          3.22
     1.113629          0.29
     1.113428          1.18
     1.113358          1.86
     1.111945          5.66
     1.110714          6.95
     1.110462          7.06
     1.108394          7.64
     1.107171          4.69
     1.106296          0.33
     1.105301          4.54
     1.104797          0.54
     1.103943          1.67
     1.103138          3.41
     1.102658          0.21
     1.101110          3.48
     1.100458          0.52
     1.098751          1.15
     1.098564          0.01
     1.098320          1.23
     1.097952          0.45
     1.096797          1.78
     1.096704          0.23
     1.095965          2.06
     1.093657          2.83
     1.092956          2.86
     1.092339          0.64
     1.092173          8.75
     1.092085          7.43
     1.088696          8.33
     1.088083          0.50
     1.088060          0.88
     1.087428          1.11
     1.087374          0.12
     1.086553          0.82
     1.086412          0.24
     1.082599          0.01
     1.080629          3.17
     1.080456          6.39
     1.076895          2.39
     1.075717          8.46
     1.074171          3.39
     1.073313          4.50
     1.072599          1.32
     1.072327          4.86
     1.071759          0.19
     1.070721          0.01
     1.069344          4.11
     1.068830          0.42
     1.068170          0.35
     1.067362          2.61
     1.066880         12.40
     1.066847          1.35
     1.065902          6.17
     1.065372          1.26
     1.064725          0.51
     1.064134          0.80
     1.062431          0.79
     1.062206          2.32
     1.059296          3.97
     1.058752          2.29
     1.058032          0.19
     1.057888          1.41
     1.057188          1.00
     1.055541          0.16
     1.055176          0.45
     1.054786         15.31
     1.053344          1.38
     1.051857          0.02
     1.051483          2.16
     1.051314          0.50
     1.050835          1.16
     1.049613         17.84
     1.049178          1.78
     1.048487         11.51
     1.048410          0.08
     1.047179          1.42
     1.047176          1.09
     1.046855          0.24
     1.046472          7.87
     1.045422          3.79
     1.045409          5.66
     1.044285         16.79
     1.043062          0.70
     1.042937          6.10
     1.042771         16.76
     1.041401          0.19
     1.038948          1.70
     1.038942          0.75
     1.038840         11.50
     1.038445          6.78
     1.038272          3.47
     1.036889          0.84
     1.036755          0.23
     1.035960          6.64
     1.035699          0.16
     1.032863          1.26
     1.031034         12.75
     1.030749          4.45
     1.030571          0.26
     1.030317         16.55
     1.029417         16.56
     1.028298          0.15
     1.028285          4.97
     1.027281          1.44
     1.026136          0.17
     1.023636          0.05
     1.023609          2.01
     1.023295          0.94
     1.021797          0.90
     1.020816          0.67
     1.020726          1.48
     1.019385          0.12
     1.019157          1.13
     1.018483          1.80
     1.017718          0.48
     1.016518          2.68
     1.014061          3.99
     1.013891          5.28
     1.013096          0.06
     1.012790          0.86
     1.012782          1.68
     1.012639         14.57
     1.011663         14.42
     1.011394          0.35
     1.011262          6.65
     1.010355          0.00
     1.009956          2.12
     1.007644          7.09
     1.007420          0.66
     1.006951          5.48
##############################################################################
###                            Comments                                    ###
##############################################################################
###   Diffraction pattern calculated by Match!. 
###   I/Ic calculated by Match!. 
##############################################################################


