##############################################################################
###               Crystal structure data exported by Match!                ###
##############################################################################
###                           Data published by:                           ###
###                                                                        ###
###               COD (Crystallography Open Database)
##############################################################################
data_9008877
_citation_journal_full    'Crystal Structures'
_citation_journal_volume  '1'
_citation_page_first  '85'
_citation_page_last   '237'
_citation_year  '1963'
_citation_title  'Second edition. Interscience Publishers, New York, New YorkNote: wurtzite structure'
loop_
_publ_author_name
  'Wyckoff R. W. G.'
_chemical_formula_sum  'O Zn'
_chemical_name_mineral  'Zincite'
_chemical_name_common  'Zinc oxide'
_symmetry_space_group_name_H-M 'P 63 m c'
_space_group_IT_number 186
_space_group_crystal_system 'hexagonal'
loop_
_symmetry_equiv_pos_as_xyz
   'x, y, z'
   'x-y, x, z+0.5'
   '-y, x-y, z'
   '-x, -y, z+0.5'
   '-x+y, -x, z'
   'y, -x+y, z+0.5'
   '-x+y, y, z'
   'x, x-y, z'
   '-y, -x, z'
   'y, x, z+0.5'
   'x-y, -y, z+0.5'
   '-x, -x+y, z+0.5'
_cell_length_a        3.24950
_cell_length_b        3.24950
_cell_length_c        5.20690
_cell_angle_alpha    90.0000
_cell_angle_beta     90.0000
_cell_angle_gamma   120.0000
loop_
_atom_site_label
_atom_site_fract_x
_atom_site_fract_y
_atom_site_fract_z
_atom_site_occupancy
_atom_site_B_iso_or_equiv
zn      0.333   0.667   0.000    1.00000    1.000
o      0.333   0.667   0.345    1.00000    1.000
_cell_measurement_wavelength    1.541874
_cell_measurement_radiation   'x-rays'
_exptl_crystal_density_diffrn    5.677000
loop_
_pd_peak_d_spacing
_pd_peak_intensity
     2.814150        470.61
     2.603450        287.34
     2.475703       1000.00
     1.911069        160.49
     1.624750        282.64
     1.477264        284.15
     1.407075         38.72
     1.378358        183.11
     1.358351        119.28
     1.301725         20.68
     1.237852         29.31
     1.181452         21.01
     1.093014         80.85
     1.063649         24.67
     1.042127         86.61
     1.015889         50.31
##############################################################################
###                            Comments                                    ###
##############################################################################
###   Diffraction pattern calculated by Match!. 
###   I/Ic calculated by Match!. 
###   Space group has been derived from given symmetry operations. 
##############################################################################


