##############################################################################
###               Crystal structure data exported by Match!                ###
##############################################################################
###                           Data published by:                           ###
###                                                                        ###
###               COD (Crystallography Open Database)
##############################################################################
data_9009083
_citation_journal_full    'Crystal Structures'
_citation_journal_volume  '1'
_citation_page_first  '239'
_citation_page_last   '444'
_citation_year  '1963'
_citation_title  'Second edition. Interscience Publishers, New York, New York'
loop_
_publ_author_name
  'Wyckoff R. W. G.'
_chemical_formula_sum  'O2 Ti'
_chemical_name_mineral  'Rutile'
_symmetry_space_group_name_H-M 'P 42/m n m'
_space_group_IT_number 136
_space_group_crystal_system 'tetragonal'
loop_
_symmetry_equiv_pos_as_xyz
   'x, y, z'
   '-y+0.5, x+0.5, z+0.5'
   '-x, -y, z'
   'y+0.5, -x+0.5, z+0.5'
   'x+0.5, -y+0.5, -z+0.5'
   '-x+0.5, y+0.5, -z+0.5'
   'y, x, -z'
   '-y, -x, -z'
   '-x, -y, -z'
   'y+0.5, -x+0.5, -z+0.5'
   'x, y, -z'
   '-y+0.5, x+0.5, -z+0.5'
   '-x+0.5, y+0.5, z+0.5'
   'x+0.5, -y+0.5, z+0.5'
   '-y, -x, z'
   'y, x, z'
_cell_length_a        4.59373
_cell_length_b        4.59373
_cell_length_c        2.95812
_cell_angle_alpha    90.0000
_cell_angle_beta     90.0000
_cell_angle_gamma    90.0000
loop_
_atom_site_label
_atom_site_fract_x
_atom_site_fract_y
_atom_site_fract_z
_atom_site_occupancy
_atom_site_B_iso_or_equiv
ti      0.000   0.000   0.000    1.00000    1.000
o      0.305   0.305   0.000    1.00000    1.000
_cell_measurement_wavelength    1.541874
_cell_measurement_radiation   'x-rays'
_exptl_crystal_density_diffrn    4.250000
loop_
_pd_peak_d_spacing
_pd_peak_intensity
     3.248258       1000.00
     2.487073        441.98
     2.296865         65.61
     2.187102        178.72
     2.054378         64.22
     1.687370        514.83
     1.624129        151.38
     1.479060         70.04
     1.452665         70.06
     1.423664          5.37
     1.359856        172.26
     1.346084         83.90
     1.303924          9.18
     1.274071          1.89
     1.243536         17.43
     1.200334          9.80
     1.170151         33.81
     1.148432         22.94
     1.114143          8.20
     1.093551         54.85
     1.082753         29.89
     1.042642         51.49
     1.036395         38.82
     1.027189         22.73
     1.016781          0.44
##############################################################################
###                            Comments                                    ###
##############################################################################
###   Diffraction pattern calculated by Match!. 
###   I/Ic calculated by Match!. 
###   Space group has been derived from given symmetry operations. 
##############################################################################


