##############################################################################
###               Crystal structure data exported by Match!                ###
##############################################################################
###                           Data published by:                           ###
###                                                                        ###
###               COD (Crystallography Open Database)
##############################################################################
data_9003319
_citation_journal_full    'American Mineralogist'
_citation_journal_volume  '89'
_citation_page_first  '359'
_citation_page_last   '364'
_citation_year  '2004'
_citation_title  'Sodalite: High-temperature structures obtained from synchrotron radiationand Rietveld refinementsSample: T = 43 C'
loop_
_publ_author_name
  'Hassan I.'
  'Antao S. M.'
  'Parise J. B.'
_chemical_formula_sum  'Al3 Cl Na4 O12 Si3'
_chemical_name_mineral  'Sodalite'
_symmetry_space_group_name_H-M 'P -4 3 n'
_space_group_IT_number 218
_space_group_crystal_system 'cubic'
loop_
_symmetry_equiv_pos_as_xyz
   'x, y, z'
   'y+0.5, -x+0.5, -z+0.5'
   '-x, -y, z'
   '-y+0.5, x+0.5, -z+0.5'
   '-x+0.5, z+0.5, -y+0.5'
   'x, -y, -z'
   '-x+0.5, -z+0.5, y+0.5'
   '-z+0.5, -y+0.5, x+0.5'
   '-x, y, -z'
   'z+0.5, -y+0.5, -x+0.5'
   'z, x, y'
   'y, z, x'
   '-y, -z, x'
   'z, -x, -y'
   '-y, z, -x'
   '-z, -x, y'
   '-z, x, -y'
   'y, -z, -x'
   '-y+0.5, -x+0.5, z+0.5'
   'y+0.5, x+0.5, z+0.5'
   'x+0.5, -z+0.5, -y+0.5'
   'x+0.5, z+0.5, y+0.5'
   '-z+0.5, y+0.5, -x+0.5'
   'z+0.5, y+0.5, x+0.5'
_cell_length_a        8.88689
_cell_length_b        8.88689
_cell_length_c        8.88689
_cell_angle_alpha    90.0000
_cell_angle_beta     90.0000
_cell_angle_gamma    90.0000
loop_
_atom_site_label
_atom_site_fract_x
_atom_site_fract_y
_atom_site_fract_z
_atom_site_occupancy
_atom_site_B_iso_or_equiv
na      0.178   0.178   0.178    1.00000    1.310
al      0.250   0.000   0.500    1.00000    0.387
si      0.250   0.500   0.000    1.00000    0.387
o      0.139   0.150   0.439    1.00000    0.142
cl      0.000   0.000   0.000    1.00000    1.879
_cell_measurement_wavelength    1.541874
_cell_measurement_radiation   'x-rays'
_cell_measurement_temperature    316.100000
_exptl_crystal_density_diffrn    2.293000
loop_
_pd_peak_d_spacing
_pd_peak_intensity
     6.283980        328.65
     4.443445         57.47
     3.974338         10.89
     3.628058       1000.00
     3.141990          0.43
     2.810282         90.07
     2.565424        188.15
     2.464780          0.20
     2.375121        205.14
     2.221723         13.36
     2.155388          0.24
     2.094660        327.93
     1.987169         47.34
     1.939278          0.30
     1.894691         36.70
     1.814029         34.78
     1.777378          0.09
     1.742863         37.11
     1.650254          2.30
     1.622517         29.27
     1.570995        111.80
     1.524089         59.16
     1.502159          0.77
     1.481148        102.60
     1.460996          0.36
     1.441644        103.88
     1.405141          6.14
     1.387899          0.43
     1.371277         39.88
     1.339749         37.95
     1.324779          0.47
     1.310301         43.94
     1.282712         30.62
     1.269556          0.03
     1.256796          2.23
     1.232390          7.24
     1.220708          0.51
     1.209353         99.38
     1.187561          7.57
     1.166906         24.40
     1.156975          0.20
     1.137850          0.71
     1.128636         44.34
     1.110861          5.19
     1.102283          0.24
     1.093901         25.39
     1.077694         24.80
     1.069856          0.52
     1.062187          3.60
     1.047330          5.66
     1.040132          0.06
     1.033080          5.07
     1.026170          0.46
     1.019396         23.61
     1.012755          1.19
##############################################################################
###                            Comments                                    ###
##############################################################################
###   Diffraction pattern calculated by Match!. 
###   I/Ic calculated by Match!. 
###   Space group has been derived from given symmetry operations. 
##############################################################################


