##############################################################################
###               Crystal structure data exported by Match!                ###
##############################################################################
###                           Data published by:                           ###
###                                                                        ###
###               COD (Crystallography Open Database)
##############################################################################
data_9014259
_citation_journal_full    'Materials Research Society Symposia Proceedings'
_citation_journal_volume  '121'
_citation_page_first  '155'
_citation_page_last   '165'
_citation_year  '1988'
_citation_title  'Mathematical Modeling of the structures and bulk moduli of TX2 quartzand cristobalite structure types, T = C, Si, Ge and X = O, S'
loop_
_publ_author_name
  'Gibbs G. V.'
  'Boisen M. B.'
  'Downs R. T.'
  'Lasaga A. C.'
_chemical_formula_sum  'O2 Si'
_chemical_name_mineral  'Cristobalite'
_symmetry_space_group_name_H-M 'P 41 21 2'
_space_group_IT_number 92
_space_group_crystal_system 'tetragonal'
loop_
_symmetry_equiv_pos_as_xyz
   'x, y, z'
   '-y+0.5, x+0.5, z+0.25'
   '-x, -y, z+0.5'
   'y+0.5, -x+0.5, z+0.75'
   'x+0.5, -y+0.5, -z+0.75'
   '-x+0.5, y+0.5, -z+0.25'
   'y, x, -z'
   '-y, -x, -z+0.5'
_cell_length_a        4.97300
_cell_length_b        4.97300
_cell_length_c        6.62700
_cell_angle_alpha    90.0000
_cell_angle_beta     90.0000
_cell_angle_gamma    90.0000
loop_
_atom_site_label
_atom_site_fract_x
_atom_site_fract_y
_atom_site_fract_z
_atom_site_occupancy
_atom_site_B_iso_or_equiv
si      0.312   0.312   0.000    1.00000    1.000
o      0.234   0.123   0.192    1.00000    1.000
_cell_measurement_wavelength    1.541874
_cell_measurement_radiation   'x-rays'
_exptl_crystal_density_diffrn    2.435000
loop_
_pd_peak_d_spacing
_pd_peak_intensity
     3.977608       1000.00
     3.516442         17.72
     3.106231        136.49
     2.757468        175.56
     2.486500        185.27
     2.411553         14.00
     2.328024          0.09
     2.223993          0.02
     2.108430         39.15
     2.018794          1.89
     1.988804         14.47
     1.870540         67.89
     1.846609         65.42
     1.758221          8.27
     1.699426          1.18
     1.656750         17.81
     1.651430         31.25
     1.608121         37.05
     1.572601         11.16
     1.571818          4.10
     1.567273          3.69
     1.553116          5.61
     1.530109         41.69
     1.498737          0.91
     1.482498         60.25
     1.420713          9.62
     1.379262          0.20
     1.378734         16.62
     1.375663         13.33
     1.350326         16.49
     1.328618         22.26
     1.325869          5.11
     1.281118         41.35
     1.280695         27.38
     1.273351         35.64
     1.243250          0.00
     1.240228          0.02
     1.221933         11.39
     1.206130         12.03
     1.205776          4.39
     1.186636         11.59
     1.172147          7.94
     1.171823          0.36
     1.169936         10.29
     1.169614          0.77
     1.164012          3.99
     1.154232          5.70
     1.140585         12.26
     1.138548         15.31
     1.133379          0.99
     1.111997          1.90
     1.105043          4.00
     1.096665          9.75
     1.083442          8.53
     1.078227          0.46
     1.060007          2.75
     1.058610          1.53
     1.058371          0.60
     1.054215          9.06
     1.053743         14.83
     1.035410          4.51
     1.035187          0.51
     1.013462          2.54
     1.009397          0.93
##############################################################################
###                            Comments                                    ###
##############################################################################
###   theoretical
###   Diffraction pattern calculated by Match!. 
###   I/Ic calculated by Match!. 
###   Space group has been derived from given symmetry operations. 
##############################################################################


