##############################################################################
###               Crystal structure data exported by Match!                ###
##############################################################################
###                           Data published by:                           ###
###                                                                        ###
###               COD (Crystallography Open Database)
##############################################################################
data_9016593
_citation_journal_full    'American Mineralogist'
_citation_journal_volume  '97'
_citation_page_first  '661'
_citation_page_last   '665'
_citation_year  '2012'
_citation_title  'Structural trends for celestite (SrSO4), anglesite (PbSO4), and barite (BaSO4):confirmation of expected variations within SO4 groups'
loop_
_publ_author_name
  'Antao S. M.'
_chemical_formula_sum  'Ba0.001 Fe0.001 O4 S Sr0.966'
_chemical_name_mineral  'Celestine'
_symmetry_space_group_name_H-M 'P b n m'
_space_group_IT_number 62
_space_group_crystal_system 'orthorhombic'
loop_
_symmetry_equiv_pos_as_xyz
   'x, y, z'
   '-x, -y, z+0.5'
   'x+0.5, -y+0.5, -z'
   '-x+0.5, y+0.5, -z+0.5'
   '-x, -y, -z'
   'x, y, -z+0.5'
   '-x+0.5, y+0.5, z'
   'x+0.5, -y+0.5, z+0.5'
_cell_length_a        6.87032
_cell_length_b        8.36030
_cell_length_c        5.34732
_cell_angle_alpha    90.0000
_cell_angle_beta     90.0000
_cell_angle_gamma    90.0000
loop_
_atom_site_label
_atom_site_fract_x
_atom_site_fract_y
_atom_site_fract_z
_atom_site_occupancy
_atom_site_B_iso_or_equiv
sr      0.158   0.184   0.250    0.96600    0.797
fe      0.158   0.184   0.250    0.00100    0.797
ba      0.158   0.184   0.250    0.00100    0.797
s      0.184   0.439   0.750    1.00000    0.702
o      0.093   0.595   0.750    1.00000    1.326
o      0.040   0.307   0.750    1.00000    1.223
o      0.312   0.422   0.974    1.00000    0.884
_cell_measurement_wavelength    1.541874
_cell_measurement_radiation   'x-rays'
_exptl_crystal_density_diffrn    3.912000
loop_
_pd_peak_d_spacing
_pd_peak_intensity
     5.307964          0.74
     4.219806         80.65
     4.180150         38.95
     3.767135        318.71
     3.571090         12.86
     3.435160        254.32
     3.293296        915.13
     3.177395        512.96
     2.969734       1000.00
     2.731555        638.64
     2.673660        491.33
     2.653982         14.57
     2.582410         59.85
     2.387843         39.27
     2.377283        158.79
     2.325432          2.02
     2.252348        135.68
     2.208738         41.96
     2.164174         66.01
     2.140267        253.97
     2.109903          8.73
     2.105168          0.01
     2.090075         11.46
     2.045760        473.59
     2.041443        380.32
     2.008446         32.23
     2.006103        309.51
     1.999592        381.52
     1.946658        137.50
     1.883567          6.30
     1.880196          0.12
     1.872927          0.00
     1.857461         54.81
     1.785545          1.14
     1.769321        173.16
     1.725320         32.82
     1.717580         31.20
     1.702833          5.81
     1.693621          0.72
     1.689714         27.23
     1.682441         40.15
     1.682160          0.03
     1.679758         82.76
     1.646648          0.27
     1.639604         68.91
     1.624638         16.90
     1.605834          5.51
     1.604879         38.69
     1.601298        123.50
     1.594817         97.93
     1.588698         10.08
     1.554543        118.64
     1.554476         18.94
     1.543789          6.11
     1.522906         20.75
     1.503420          9.62
     1.484867          0.72
     1.483214          0.73
     1.479695         17.54
     1.475497        193.46
     1.466938          4.24
     1.462171          0.15
     1.447305         57.83
     1.445087         33.33
     1.423971         94.92
     1.410394         21.77
     1.406602          0.01
     1.393383          1.27
     1.388410         37.83
     1.387106         73.91
     1.375864         72.99
     1.365777         11.81
     1.365581          1.09
     1.356228         48.15
     1.355873          0.92
     1.350422         40.16
     1.348358         54.93
     1.336928          0.19
     1.336830         81.57
     1.333150          0.07
     1.330829         40.39
     1.330551          0.59
     1.326991          0.83
     1.323118         86.79
     1.314281          0.05
     1.310452          0.85
     1.309315         54.15
     1.305350         13.73
     1.296348          0.05
     1.291205          0.12
     1.287926         32.70
     1.282864         20.11
     1.273301          4.59
     1.268113         58.74
     1.261472          0.68
     1.255712         44.60
     1.255132          7.69
     1.251981          5.09
     1.245817         15.19
     1.235650         19.96
     1.232399          4.04
     1.232211         51.55
     1.223491         27.60
     1.216137          4.34
     1.209265          6.58
     1.205393        104.98
     1.200917         12.21
     1.200713          9.68
     1.198095          0.69
     1.193921          0.18
     1.190363          0.21
     1.188641          1.04
     1.187189         11.84
     1.185984          9.46
     1.176681          0.03
     1.173013         30.48
     1.169109         16.96
     1.166946          0.39
     1.162716          5.49
     1.161922          0.46
     1.149214         19.32
     1.149187          4.37
     1.148165         50.41
     1.145053         23.53
     1.143667          3.48
     1.137341          5.54
     1.134462          0.59
     1.130472          9.82
     1.128091         36.92
     1.126174          1.23
     1.122579          0.37
     1.119222          7.78
     1.112855          5.04
     1.111342         80.48
     1.109762          0.22
     1.104369          3.50
     1.103796         13.28
     1.097765         24.25
     1.093340          1.46
     1.088243         21.86
     1.087455          0.12
     1.084015         31.72
     1.082087          3.87
     1.081544         48.53
     1.079139          0.05
     1.076994          1.89
     1.076385         35.57
     1.070134          0.17
     1.066610         56.10
     1.064406         17.45
     1.061593          0.01
     1.060589          7.44
     1.059132          0.31
     1.058970          0.67
     1.056738          1.30
     1.055000         60.14
     1.054952         11.00
     1.053140         29.47
     1.052584         20.80
     1.048396          7.61
     1.046652         19.64
     1.045669          4.20
     1.045038         28.01
     1.044340          0.00
     1.041271          7.24
     1.039363         49.66
     1.038948          3.64
     1.038796         29.56
     1.036092         25.54
     1.033154          1.04
     1.032285          8.57
     1.025635          1.23
     1.024508         32.86
     1.022880          5.23
     1.020722         12.62
     1.014394          7.57
     1.013694         12.92
     1.013590         14.94
     1.010591          1.27
##############################################################################
###                            Comments                                    ###
##############################################################################
###   Saxony, Ngar Majunga, Madagascar
###   Diffraction pattern calculated by Match!. 
###   I/Ic calculated by Match!. 
###   Space group has been derived from given symmetry operations. 
##############################################################################


