##############################################################################
###               Crystal structure data exported by Match!                ###
##############################################################################
###                           Data published by:                           ###
###                                                                        ###
###               COD (Crystallography Open Database)
##############################################################################
data_1526264
_citation_journal_full    'Solid State Ionics'
_citation_journal_volume  '140'
_citation_page_first  '115'
_citation_page_last   '123'
_citation_year  '2001'
_citation_title  'Modelling the crystal structures of Aurivillius phases'
loop_
_publ_author_name
  'Pirovano C.'
  'Islam M.S.'
  'Vannier R.S.'
  'Nowogrocki G.'
  'Mairesse G.'
_chemical_formula_sum  'O Pb'
_chemical_name_common  'Lead(II) oxide'
_symmetry_space_group_name_H-M 'P 4/n m m'
_space_group_IT_number 129
_space_group_crystal_system 'tetragonal'
loop_
_symmetry_equiv_pos_as_xyz
   'x, y, z'
   '-x+0.5, -y+0.5, -z'
   '-y+0.5, x+0.5, z'
   '-x, -y, z'
   'y+0.5, -x+0.5, z'
   'y, -x, -z'
   '-y, x, -z'
   'x+0.5, -y+0.5, -z'
   '-x+0.5, y+0.5, -z'
   'y, x, -z'
   '-y, -x, -z'
   'x+0.5, y+0.5, -z'
   '-x, y, z'
   'x, -y, z'
   '-y+0.5, -x+0.5, z'
   'y+0.5, x+0.5, z'
_cell_length_a        3.97480
_cell_length_b        3.97480
_cell_length_c        5.02270
_cell_angle_alpha    90.0000
_cell_angle_beta     90.0000
_cell_angle_gamma    90.0000
_cell_formula_units_Z 2
loop_
_atom_site_label
_atom_site_fract_x
_atom_site_fract_y
_atom_site_fract_z
_atom_site_occupancy
_atom_site_B_iso_or_equiv
pb      0.000   0.500   0.239    1.00000    1.000
o      0.000   0.000   0.000    1.00000    1.000
_cell_measurement_wavelength    1.541874
_cell_measurement_radiation   'x-rays'
_exptl_crystal_density_diffrn    9.341000
loop_
_pd_peak_d_spacing
_pd_peak_intensity
     5.022700         22.21
     3.116880       1000.00
     2.810608        318.79
     2.511350        114.16
     2.452710          0.04
     2.123089          6.91
     1.987400        155.84
     1.872689        250.35
     1.847992          4.32
     1.675735        302.45
     1.674233          0.83
     1.558440        100.49
     1.542945        107.75
     1.450904          3.72
     1.438375          6.59
     1.405304         44.81
     1.353331          1.17
     1.281110         56.19
     1.280439          1.43
     1.256942         47.02
     1.255675         13.47
     1.226355         42.13
     1.219341          0.03
     1.218762         89.82
     1.197349          3.58
     1.171847          0.85
     1.146462         31.36
     1.124016         77.53
     1.076780         62.71
     1.076381          0.86
     1.061545         30.83
     1.038960         27.44
     1.025599          4.53
     1.009436          1.12
##############################################################################
###                            Comments                                    ###
##############################################################################
###   Diffraction pattern calculated by Match!. 
###   I/Ic calculated by Match!. 
###   Space group has been derived from given symmetry operations. 
##############################################################################


