##############################################################################
###               Crystal structure data exported by Match!                ###
##############################################################################
###                           Data published by:                           ###
###                                                                        ###
###               COD (Crystallography Open Database)
##############################################################################
data_5910311
_citation_journal_full    'The Structure of Crystals'
_citation_journal_volume  '3'
_citation_page_first  '15'
_citation_page_last   '17'
_citation_year  '1951'
_citation_title  'Pages 15 & 17 from the Structure of Crystals, vol. 3 by Wyckoff R W G.published by Interscience Publishers, Inc. in 1951'
loop_
_publ_author_name
  'Wyckoff R. W. G.'
_chemical_formula_sum  'Bi O4 V'
_chemical_name_common  'Bismuth vanadate'
_symmetry_space_group_name_H-M 'I 41/a m d'
_space_group_IT_number 141
_space_group_crystal_system 'tetragonal'
loop_
_symmetry_equiv_pos_as_xyz
   'x, y, z'
   'x+0.5, y+0.5, z+0.5'
   '-y+0.25, x+0.75, z+0.25'
   '-y+0.75, x+0.25, z+0.75'
   '-x, -y+0.5, z'
   '-x+0.5, -y, z+0.5'
   'y+0.25, -x+0.25, z+0.75'
   'y+0.75, -x+0.75, z+0.25'
   'x, -y, -z'
   'x+0.5, -y+0.5, -z+0.5'
   '-x, y+0.5, -z'
   '-x+0.5, y, -z+0.5'
   'y+0.25, x+0.75, -z+0.25'
   'y+0.75, x+0.25, -z+0.75'
   '-y+0.25, -x+0.25, -z+0.75'
   '-y+0.75, -x+0.75, -z+0.25'
   '-x, -y, -z'
   '-x+0.5, -y+0.5, -z+0.5'
   'y+0.25, -x+0.75, -z+0.25'
   'y+0.75, -x+0.25, -z+0.75'
   'x, y+0.5, -z'
   'x+0.5, y, -z+0.5'
   '-y+0.25, x+0.25, -z+0.75'
   '-y+0.75, x+0.75, -z+0.25'
   '-x, y, z'
   '-x+0.5, y+0.5, z+0.5'
   'x, -y+0.5, z'
   'x+0.5, -y, z+0.5'
   '-y+0.25, -x+0.75, z+0.25'
   '-y+0.75, -x+0.25, z+0.75'
   'y+0.25, x+0.25, z+0.75'
   'y+0.75, x+0.75, z+0.25'
_cell_length_a        7.29990
_cell_length_b        7.29990
_cell_length_c        6.45730
_cell_angle_alpha    90.0000
_cell_angle_beta     90.0000
_cell_angle_gamma    90.0000
loop_
_atom_site_label
_atom_site_fract_x
_atom_site_fract_y
_atom_site_fract_z
_atom_site_occupancy
_atom_site_B_iso_or_equiv
bi      0.000   0.000   0.000    1.00000    1.000
bi      0.000   0.500   0.250    1.00000    1.000
bi      0.500   0.000   0.750    1.00000    1.000
bi      0.500   0.500   0.500    1.00000    1.000
v      0.000   0.000   0.500    1.00000    1.000
v      0.000   0.500   0.750    1.00000    1.000
v      0.500   0.000   0.250    1.00000    1.000
v      0.500   0.500   0.000    1.00000    1.000
o      0.000   0.200   0.340    1.00000    1.000
o      0.000   -0.200   0.340    1.00000    1.000
o      0.200   0.000   -0.340    1.00000    1.000
o      -0.200   0.000   -0.340    1.00000    1.000
o      0.000   0.700   -0.090    1.00000    1.000
o      0.000   0.300   -0.090    1.00000    1.000
o      -0.200   0.500   0.590    1.00000    1.000
_cell_measurement_wavelength    1.541874
_cell_measurement_radiation   'x-rays'
_exptl_crystal_density_diffrn    7.025000
loop_
_pd_peak_d_spacing
_pd_peak_intensity
     4.836596        124.58
     3.649950          6.86
     2.913441         55.36
     2.580904       1000.00
     2.418298        272.80
     2.276997         40.22
     2.064556         26.47
     1.931893         39.73
     1.824975        620.10
     1.797001         20.08
     1.707468         14.44
     1.632307          0.26
     1.614325        125.47
     1.612199          5.27
     1.588737          0.02
     1.476369          0.17
     1.474742          4.10
     1.456720         94.15
     1.424035         16.94
     1.368645        398.60
     1.367348         10.22
     1.326641          3.40
     1.290452        149.12
     1.271712          2.16
     1.216650          0.01
     1.209149        188.07
     1.208255          8.36
     1.200907          6.64
     1.179892          4.15
     1.154216        168.33
     1.147805          0.04
     1.147040          6.04
     1.140748          1.38
     1.138499         20.12
     1.122690          2.41
     1.088809          4.44
     1.086853          0.01
     1.073074          5.16
     1.048183          4.17
     1.043375          3.12
     1.032278         14.26
     1.029504          2.42
     1.007981        117.41
     1.007462          5.10
##############################################################################
###                            Comments                                    ###
##############################################################################
###   Diffraction pattern calculated by Match!. 
###   I/Ic calculated by Match!. 
###   Space group has been derived from given symmetry operations. 
##############################################################################


