##############################################################################
###               Crystal structure data exported by Match!                ###
##############################################################################
###                           Data published by:                           ###
###                                                                        ###
###               COD (Crystallography Open Database)
##############################################################################
data_9013572
_citation_journal_full    'American Mineralogist'
_citation_journal_volume  '94'
_citation_page_first  '451'
_citation_page_last   '460'
_citation_year  '2009'
_citation_title  'Molecular conformation and anion configuration variations for As4S4 andAs4Se4 in an anion-substituted solid solution Locality: synthetic Note:S1Se1-4'
loop_
_publ_author_name
  'Kyono A.'
_chemical_formula_sum  'As S0.607 Se0.392'
_chemical_name_mineral  'Realgar'
_symmetry_space_group_name_H-M 'P 1 21/n 1'
_space_group_IT_number 14
_space_group_crystal_system 'monoclinic'
loop_
_symmetry_equiv_pos_as_xyz
   'x, y, z'
   '-x+0.5, y+0.5, -z+0.5'
   '-x, -y, -z'
   'x+0.5, -y+0.5, z+0.5'
_cell_length_a        9.46020
_cell_length_b       13.63740
_cell_length_c        6.65560
_cell_angle_alpha    90.0000
_cell_angle_beta    106.4895
_cell_angle_gamma    90.0000
loop_
_atom_site_label
_atom_site_fract_x
_atom_site_fract_y
_atom_site_fract_z
_atom_site_occupancy
_atom_site_B_iso_or_equiv
as      0.119   -0.020   0.761    1.00000    1.847
as      0.424   0.140   0.859    1.00000    1.800
as      0.322   0.129   0.177    1.00000    1.792
as      0.040   0.161   0.710    1.00000    1.958
s      0.344   -0.009   0.698    0.56390    2.123
se      0.344   -0.009   0.698    0.43600    2.123
s      0.214   -0.025   0.119    0.53700    1.918
se      0.214   -0.025   0.119    0.46300    1.918
s      0.240   0.228   0.640    0.72800    2.123
se      0.240   0.228   0.640    0.27200    2.123
s      0.108   0.214   0.054    0.60100    2.210
se      0.108   0.214   0.054    0.39900    2.210
_cell_measurement_wavelength    1.541874
_cell_measurement_radiation   'x-rays'
_exptl_crystal_density_diffrn    4.046000
loop_
_pd_peak_d_spacing
_pd_peak_intensity
     7.552858         66.56
     6.818700         88.97
     6.097131        357.94
     5.780254        563.27
     5.566152        261.11
     5.450526       1000.00
     4.659444        108.91
     4.636795         64.83
     4.545096         13.86
     4.535559         32.75
     4.389984          0.57
     4.303778         10.87
     4.119405        154.07
     4.064050         12.72
     3.834268         27.10
     3.776429        121.81
     3.702545         58.81
     3.650021         75.69
     3.644386          6.50
     3.409350         18.57
     3.246059          7.25
     3.225308         94.31
     3.210739        394.59
     3.191884          1.16
     3.191385        435.63
     3.190933        435.41
     3.131967          8.16
     3.107015        130.14
     3.093286        440.62
     3.048566         11.03
     3.016657        126.34
     3.007136        179.15
     2.984602        242.74
     2.975727          0.14
     2.975135        212.88
     2.958057        491.06
     2.952016         23.65
     2.890127        160.36
     2.816976        234.08
     2.783076         33.14
     2.764124        157.48
     2.746763        568.85
     2.725263        183.82
     2.718095        236.68
     2.680807          0.43
     2.676595         97.22
     2.661522         27.57
     2.611965        181.89
     2.611717         73.80
     2.569304         19.31
     2.557359         51.69
     2.547175        199.18
     2.531915          0.05
     2.517619        114.34
     2.508031          0.01
     2.489721        184.39
     2.474256         71.26
     2.434511         91.20
     2.423510         91.69
     2.378364         88.20
     2.367770          5.47
     2.364867         11.95
     2.350919          0.84
     2.337397         17.63
     2.329722          1.86
     2.325866         52.36
     2.324002          5.15
     2.318398         16.49
     2.306473          2.55
     2.290893          1.06
     2.285605          0.66
     2.272900        172.09
     2.272548          2.66
     2.267780         24.67
     2.262194         51.75
     2.252207         72.68
     2.237060         27.81
     2.228934         33.79
     2.215604        167.31
     2.204744        107.36
     2.194992         42.47
     2.186930         62.98
     2.173197          1.33
     2.160633        102.88
     2.151889         47.44
     2.151616          7.25
     2.151015        138.77
     2.141158          4.83
     2.134015         37.84
     2.129732         45.54
     2.107358         11.78
     2.107158          0.46
     2.101871         20.14
     2.097951          0.17
     2.093503          1.82
     2.074975         59.95
     2.073297          0.09
     2.065304          6.11
     2.063797         11.43
     2.059703         55.99
     2.045788          7.39
     2.040891          2.95
     2.032692          0.39
     2.032377         35.55
     2.032025         21.12
     2.030756          2.28
     2.029277          2.58
     2.025272         18.98
     2.011609         13.72
     2.010177         10.97
     2.002492         62.51
     1.991636         23.02
     1.964395         10.84
     1.951622          0.83
     1.951422          0.14
     1.947724          1.26
     1.947701          6.68
     1.944771         52.81
     1.939625          3.83
     1.931939         33.86
     1.926751          3.98
     1.918114          3.52
     1.917134          9.71
     1.904766         17.56
     1.892040         18.80
     1.890732         25.80
     1.888215          8.93
     1.879197          0.04
     1.876282        143.87
     1.875399         53.64
     1.874089         24.45
     1.868760        167.08
     1.863610         21.68
     1.863312          7.14
     1.857777          2.51
     1.855767          2.45
     1.855384          6.37
     1.851272        100.44
     1.835609          0.88
     1.832563          1.35
     1.831609        158.14
     1.825010         23.24
     1.823155        206.07
     1.822193          5.96
     1.816842         11.32
     1.816301          6.80
     1.805938        135.20
     1.804783         41.79
     1.798380          2.26
     1.797940          3.01
     1.796102          7.48
     1.793334         37.88
     1.790051          0.07
     1.784013         69.43
     1.782260         20.06
     1.776047         16.90
     1.769821          0.35
     1.766466         20.68
     1.758049         27.54
     1.753228         18.77
     1.752821          8.81
     1.746777         27.07
     1.745731         78.39
     1.743765          3.73
     1.730835         15.38
     1.719707        139.35
     1.709160         79.42
     1.704675         63.03
     1.704356          1.47
     1.702079          9.06
     1.699701         71.45
     1.693749        166.70
     1.693619         42.03
     1.690471        108.33
     1.684988          1.98
     1.684625         34.67
     1.684410          2.98
     1.680201          6.04
     1.677416         42.83
     1.675421          0.17
     1.675349         33.71
     1.673848         40.70
     1.662784         11.90
     1.659740         49.48
     1.654361         73.63
     1.648492         14.09
     1.647583          5.14
     1.646934          2.61
     1.641717          8.52
     1.641617         31.24
     1.641538         10.32
     1.641433          4.08
     1.637702         29.00
     1.636609         59.56
     1.629774          0.53
     1.629689          0.53
     1.629050          0.00
     1.627783          5.18
     1.627130          3.44
     1.623030          9.83
     1.616309         60.14
     1.615670         25.36
     1.614203         24.94
     1.612654          3.23
     1.606886          0.08
     1.605370          8.20
     1.601584          7.94
     1.601430          1.13
     1.601273          1.67
     1.599975          0.39
     1.595942         79.67
     1.595875         21.62
     1.595692         12.31
     1.595467          1.98
     1.594250          8.12
     1.587158          0.52
     1.586538         36.66
     1.585749          0.14
     1.584659          5.81
     1.583293         18.41
     1.582692          5.37
     1.579465          0.26
     1.572664         18.02
     1.569298          7.49
     1.565983         34.57
     1.564418          0.01
     1.559071          0.24
     1.557522         33.47
     1.554610          7.05
     1.553857          4.14
     1.553507          6.25
     1.553319          8.48
     1.553148          2.13
     1.546643          0.71
     1.545598          3.75
     1.543955          5.68
     1.536791         24.31
     1.535767          0.05
     1.534422         60.95
     1.532493          4.48
     1.531949          2.97
     1.530660         11.01
     1.524283         61.89
     1.521145          0.00
     1.519793          4.02
     1.516408          2.96
     1.515032         22.63
     1.514850         34.85
     1.512892         64.28
     1.511853          1.82
     1.510572          1.70
     1.510311          6.00
     1.508328          4.03
     1.507360         15.12
     1.505436          6.66
     1.503568         24.95
     1.502647          0.01
     1.502027          4.28
     1.494558          3.18
     1.492976          6.95
     1.492301         32.47
     1.491510         20.62
     1.491372         38.39
     1.488049         43.86
     1.487864          0.17
     1.487750          3.41
     1.487726          0.16
     1.487567         15.45
     1.484946          8.73
     1.480680          3.13
     1.479029         75.33
     1.477770          1.38
     1.476008         11.04
     1.474428          0.35
     1.474280          2.48
     1.470535          1.94
     1.469875         11.05
     1.468944         54.33
     1.468464         25.69
     1.465317         10.36
     1.464214         17.46
     1.463328          0.67
     1.463041          6.21
     1.457747         30.86
     1.454148          3.76
     1.452325          4.99
     1.452141         14.24
     1.446876          1.92
     1.445199          4.75
     1.445064          5.94
     1.440310          0.47
     1.437183         44.99
     1.436734         21.76
     1.434593          0.03
     1.432454          2.44
     1.429905          3.68
     1.429665          4.74
     1.426650          0.37
     1.424771         10.41
     1.424396         14.74
     1.417916          1.23
     1.417855         18.32
     1.417701         10.13
     1.413930          2.73
     1.409320          5.97
     1.408488          2.21
     1.407699          0.30
     1.406539         14.02
     1.406457          4.78
     1.406403          3.04
     1.405908          7.07
     1.403763         10.62
     1.397776          0.08
     1.397363          0.08
     1.391538          4.57
     1.388119          0.94
     1.386873          0.22
     1.384620         31.46
     1.384497          2.35
     1.384098          0.00
     1.384017          1.19
     1.382062          1.25
     1.381579          2.93
     1.379757          9.35
     1.378794          1.72
     1.378466          5.56
     1.378443         40.33
     1.377154          8.80
     1.375800          0.23
     1.373742          0.34
     1.373381          6.55
     1.373273          1.37
     1.373135          0.02
     1.368777          4.50
     1.363807          0.00
     1.363740          1.25
     1.362757          1.02
     1.362632          5.82
     1.360772          0.01
     1.359047          2.00
     1.357814          2.36
     1.357294          2.14
     1.356897          8.75
     1.354683          0.35
     1.351059          2.30
     1.350259          4.39
     1.349700          0.11
     1.348585          0.31
     1.346686          4.95
     1.345387         17.81
     1.344699          0.11
     1.342792          2.67
     1.342460          1.92
     1.340404          0.83
     1.340168          0.01
     1.338298         33.94
     1.337086          0.03
     1.334852          4.03
     1.334171          4.90
     1.333631         12.62
     1.330856          4.46
     1.330761          0.12
     1.330591          9.79
     1.330260         10.36
     1.329779          0.21
     1.327689          0.90
     1.327512          0.05
     1.326860          1.16
     1.326511          0.91
     1.325364         25.22
     1.324820          8.84
     1.323401          1.02
     1.323050          0.13
     1.322299          0.60
     1.321166          0.04
     1.317490          0.03
     1.316533          1.85
     1.315420          3.52
     1.315196          5.63
     1.314596          0.02
     1.311385          0.00
     1.311383          0.24
     1.310441          1.16
     1.308327          7.79
     1.308240          2.31
     1.306455          9.71
     1.306185          0.90
     1.306076          0.80
     1.305982          4.77
     1.305859          2.63
     1.305679          0.01
     1.300514          5.49
     1.299802          0.00
     1.296402          0.26
     1.294462          2.11
     1.293565          2.58
     1.292659          3.85
     1.292200          9.16
     1.291217          1.78
     1.290583         13.79
     1.290063          0.25
     1.288475         10.32
     1.285851          1.55
     1.284652          0.01
     1.283874          0.18
     1.283610          0.07
     1.279803          5.58
     1.279792          1.36
     1.278680          2.82
     1.278089          3.61
     1.277473          4.96
     1.274834          0.38
     1.274204          1.10
     1.273710          0.06
     1.273588          0.00
     1.273087          9.06
     1.272542          8.80
     1.270897          0.99
     1.270819          4.47
     1.268385          0.95
     1.266463          0.23
     1.265957         13.13
     1.265415          0.13
     1.264635          0.08
     1.264567          2.86
     1.263414          1.42
     1.261436          0.33
     1.260635          0.30
     1.259902          0.11
     1.259409          0.01
     1.258810          0.67
     1.257839          0.80
     1.256240          2.03
     1.255388          2.48
     1.255330          0.49
     1.254939         11.03
     1.254583          2.32
     1.254015          1.29
     1.252516          0.93
     1.252158          1.16
     1.250737          1.20
     1.249146          2.60
     1.248851          0.17
     1.248631         19.22
     1.248173          6.61
     1.247851          1.35
     1.247616          0.47
     1.246695         10.74
     1.246226          6.12
     1.244861          0.00
     1.243906          0.57
     1.243151          0.68
     1.242311          7.59
     1.242239          0.72
     1.242166          0.71
     1.240593          0.81
     1.239959          0.27
     1.237128          8.37
     1.236235          5.69
     1.235306          3.21
     1.234362          0.00
     1.234182          0.02
     1.232069          0.79
     1.231912          0.30
     1.230410         12.74
     1.228923         18.36
     1.228852          0.21
     1.228344          2.64
     1.228146          4.92
     1.224723          0.32
     1.223962          3.26
     1.223822          1.65
     1.223257          0.00
     1.219976          0.30
     1.219426          0.03
     1.219376         10.21
     1.217256          2.52
     1.217154          0.11
     1.217012          5.44
     1.216674          1.09
     1.215123          0.65
     1.214903          3.62
     1.214795         13.81
     1.214580          6.86
     1.212335          0.31
     1.211755          1.52
     1.211331          4.91
     1.211324          0.31
     1.210829          7.24
     1.207518          4.39
     1.206970          3.84
     1.205007          0.14
     1.203126          1.31
     1.200906          0.43
     1.200674          0.68
     1.200595          6.32
     1.200499          0.00
     1.200382          1.19
     1.200330          0.47
     1.200282         13.37
##############################################################################
###                            Comments                                    ###
##############################################################################
###   Diffraction pattern calculated by Match!. 
###   I/Ic calculated by Match!. 
##############################################################################


