##############################################################################
###               Crystal structure data exported by Match!                ###
##############################################################################
###                           Data published by:                           ###
###                                                                        ###
###               COD (Crystallography Open Database)
##############################################################################
data_4124118
_citation_journal_full    'Journal of the American Chemical Society'
_citation_journal_volume  '129'
_citation_page_first  '11512'
_citation_page_last   '11523'
_citation_year  '2007'
_citation_title  'Structure, vibrational analysis, and insights into host-guestinteractions in as-synthesized pure silica ITQ-12 zeolite by periodicB3LYP calculations'
loop_
_publ_author_name
  'Zicovich-Wilson C.M.'
  'San-Roman M.L.'
  'Camblor M.A.'
  'Pascale F.'
  'Durand-Niconoff J.S.'
_chemical_formula_sum  'O2 Si'
_chemical_name_common  'Silica'
_symmetry_space_group_name_H-M 'P 1'
_space_group_IT_number 1
_space_group_crystal_system 'triclinic'
loop_
_symmetry_equiv_pos_as_xyz
   'x, y, z'
_cell_length_a        9.20884
_cell_length_b        9.17455
_cell_length_c        8.98437
_cell_angle_alpha    81.0227
_cell_angle_beta     98.2014
_cell_angle_gamma    68.4861
_cell_formula_units_Z 12
loop_
_atom_site_label
_atom_site_fract_x
_atom_site_fract_y
_atom_site_fract_z
_atom_site_occupancy
_atom_site_B_iso_or_equiv
o      -0.074   -0.191   -0.301    1.00000    1.000
si      -0.109   -0.392   0.119    1.00000    1.000
si      0.009   0.192   -0.293    1.00000    1.000
si      0.099   -0.309   -0.324    1.00000    1.000
o      -0.032   -0.474   -0.014    1.00000    1.000
si      -0.287   0.096   0.338    1.00000    1.000
o      0.483   -0.166   -0.201    1.00000    1.000
si      -0.077   0.298   0.352    1.00000    1.000
o      -0.104   0.097   -0.251    1.00000    1.000
si      0.012   -0.201   0.319    1.00000    1.000
o      -0.065   0.307   -0.467    1.00000    1.000
o      0.257   0.294   0.040    1.00000    1.000
o      0.236   -0.246   -0.263    1.00000    1.000
o      -0.211   0.229   0.298    1.00000    1.000
o      0.189   0.063   -0.285    1.00000    1.000
si      -0.410   -0.100   -0.090    1.00000    1.000
o      0.146   -0.490   -0.225    1.00000    1.000
o      0.120   -0.103   0.271    1.00000    1.000
o      0.475   0.035   -0.015    1.00000    1.000
o      0.090   -0.312   0.494    1.00000    1.000
o      0.096   0.181   0.327    1.00000    1.000
o      -0.285   -0.252   0.044    1.00000    1.000
o      0.344   0.004   0.224    1.00000    1.000
o      0.320   -0.091   -0.491    1.00000    1.000
o      -0.170   -0.076   0.310    1.00000    1.000
si      0.307   -0.110   -0.310    1.00000    1.000
o      -0.305   0.075   -0.483    1.00000    1.000
o      0.009   -0.316   0.199    1.00000    1.000
o      -0.461   0.159   0.225    1.00000    1.000
si      0.220   -0.002   0.333    1.00000    1.000
si      0.097   0.407   -0.091    1.00000    1.000
o      -0.130   0.478   0.250    1.00000    1.000
si      0.405   0.122   0.118    1.00000    1.000
o      -0.318   -0.015   -0.192    1.00000    1.000
si      -0.200   -0.009   -0.307    1.00000    1.000
o      0.014   0.299   -0.167    1.00000    1.000
_cell_measurement_wavelength    1.541874
_cell_measurement_radiation   'x-rays'
_exptl_crystal_density_diffrn    1.758000
loop_
_pd_peak_d_spacing
_pd_peak_intensity
     8.661847          2.27
     8.362124       1000.00
     8.313967        963.97
     7.598015        243.94
     6.818135        294.03
     6.800449        294.35
     5.738007        463.66
     5.686163        522.40
     5.452572          9.24
     5.416910          3.71
     4.986661        264.80
     4.923509        394.90
     4.527762         33.40
     4.504804         20.63
     4.330923        244.68
     4.255800         18.16
     4.240840         29.34
     4.224131         40.04
     4.211521         28.81
     4.181062          4.14
     4.156984          0.39
     4.133767          0.75
     4.129950          4.36
     3.897431        114.67
     3.839479          7.01
     3.808380        104.57
     3.802302          2.17
     3.799008         92.54
     3.777502         30.93
     3.747865        105.42
     3.543811         76.87
     3.527841        111.36
     3.490868        315.13
     3.480615         58.07
     3.467437        195.62
     3.455155         38.31
     3.409067         54.40
     3.400224         38.02
     3.343259          0.76
     3.340846        154.47
     3.336747        153.42
     3.321598          1.82
     3.251909         56.49
     3.243372         54.09
     3.031167          1.37
     3.012825          2.02
     3.009202          4.20
     3.006258          3.97
     2.998439          9.16
     2.997658          7.68
     2.967629         10.27
     2.941552         24.99
     2.939703          4.66
     2.933082         37.49
     2.912333         59.79
     2.909776         36.12
     2.902127         54.98
     2.887282         44.34
     2.869003         37.11
     2.847863          8.95
     2.843081         78.69
     2.839585          0.21
     2.832051          0.12
     2.825944          9.91
     2.819644          5.26
     2.815081          9.01
     2.806458         13.79
     2.787375          1.68
     2.771322          0.85
     2.732810         20.42
     2.726286         26.77
     2.708455         24.32
     2.708226         10.82
     2.707221         12.61
     2.704885          5.66
     2.693982         21.66
     2.690813         13.84
     2.685263         10.20
     2.683166          0.20
     2.671473         29.45
     2.661949         32.59
     2.618797          3.98
     2.617238          3.69
     2.585903          6.18
     2.585393          5.15
     2.568739          2.41
     2.562630          9.94
     2.554250          9.07
     2.532672         26.80
     2.512876          0.28
     2.505529         16.63
     2.502890         20.08
     2.499566          1.50
     2.497538          0.23
     2.493330         17.10
     2.481569          2.38
     2.461754          8.11
     2.450415         39.90
     2.444749         36.88
     2.436905          2.74
     2.424917          0.03
     2.373466          1.54
     2.364629          2.89
     2.343302          2.36
     2.342595          0.50
     2.341205          0.10
     2.328293          9.59
     2.321665          8.38
     2.321071          2.31
     2.320400          9.18
     2.319204          1.26
     2.308939         16.81
     2.300703          0.04
     2.299160          1.86
     2.288664          1.63
     2.284658          2.87
     2.275741         18.51
     2.272772          1.76
     2.272712          2.65
     2.269279         20.66
     2.266816          3.18
     2.263881          0.51
     2.253094          0.15
     2.252797          7.12
     2.252402          1.28
     2.251239          0.43
     2.250182         14.75
     2.242999          1.21
     2.236117         12.41
     2.221754          1.17
     2.216582          2.46
     2.212365          5.09
     2.197553          3.01
     2.195057         26.35
     2.177614         12.08
     2.165761          2.14
     2.165462          4.46
     2.156438          6.22
     2.155927         12.54
     2.154987          4.04
     2.154004          5.17
     2.146542          8.65
     2.141476          2.47
     2.141172          1.19
     2.140949          9.46
     2.133626          0.91
     2.132492          0.75
     2.127900          2.60
     2.126104          4.31
     2.124737         13.81
     2.123974          8.38
     2.120420          2.86
     2.118423          6.23
     2.114950          2.33
     2.112065          1.34
     2.111830         12.30
     2.110231          8.10
     2.105760          4.10
     2.091669          3.02
     2.090531          0.04
     2.089509          0.03
     2.087577          0.91
     2.085941          0.65
     2.078492          0.06
     2.077527          5.59
     2.074125          0.33
     2.067160          6.30
     2.066884          0.07
     2.064975          0.19
     2.064453          7.32
     2.057235          4.01
     2.049815         10.80
     2.047440         11.62
     2.044983          1.49
     2.040531          0.31
     2.027444          2.22
     2.010500          7.67
     2.009387          7.30
     1.993710          3.45
     1.988662          6.62
     1.983386         13.39
     1.979308          0.07
     1.976095          0.07
     1.964150          9.14
     1.954010          0.40
     1.951596          0.10
     1.948716         43.73
     1.946265         10.21
     1.945380          0.52
     1.943899          0.23
     1.938302          0.43
     1.931492          0.27
     1.929285         16.35
     1.926615          0.27
     1.924886          0.21
     1.924716          0.27
     1.921866          1.33
     1.919740          9.21
     1.917286          4.57
     1.917102          3.64
     1.912669          5.62
     1.911289          2.52
     1.906379         11.48
     1.904190         35.29
     1.903398          0.56
     1.901151          3.48
     1.901058          0.48
     1.899504         57.92
     1.897662          7.51
     1.895388         25.19
     1.891740          2.93
     1.888751          0.28
     1.887448          1.79
     1.883894          1.42
     1.883528          0.71
     1.881148          2.13
     1.878295          0.12
     1.878282          0.30
     1.873932          2.55
     1.873352          0.10
     1.872108          1.67
     1.868939          3.51
     1.860866          0.04
     1.859945          0.04
     1.858978          1.32
     1.855733          0.21
     1.851979          0.12
     1.851959          3.99
     1.851870          1.39
     1.848481          3.69
     1.845657          1.26
     1.835559          0.11
     1.830809          0.14
     1.828275          0.10
     1.824896          0.21
     1.822910          0.02
     1.817791          0.94
     1.817524          0.02
     1.812664          9.13
     1.812433          0.11
     1.811831          0.74
     1.805798          7.54
     1.805637          0.06
     1.797917          0.44
     1.790361          2.15
     1.782415          3.56
     1.778813          1.49
     1.778197          1.37
     1.774764          4.48
     1.773073          0.17
     1.773041          0.04
     1.772790          0.37
     1.771905          1.30
     1.771585          1.15
     1.771378          1.12
     1.771231          0.08
     1.770764          0.50
     1.769639          0.34
     1.766156          0.84
     1.764370          5.84
     1.763921          0.61
     1.763830          1.99
     1.751131          1.01
     1.745444          1.95
     1.745434          0.30
     1.740307          2.37
     1.739841          2.18
     1.736250          0.08
     1.733719          0.14
     1.733687          0.10
     1.732369         25.84
     1.727577          4.33
     1.726704          0.68
     1.725084          0.20
     1.724412          0.95
     1.723311          7.91
     1.722195          0.02
     1.719070          9.34
     1.715504          7.32
     1.713615          0.80
     1.712912          0.36
     1.711212          8.21
     1.706011          0.98
     1.704534          1.09
     1.702009          0.31
     1.701458          0.35
     1.700341          1.08
     1.700112          2.23
     1.699649          1.29
     1.697607          0.13
     1.692384          0.07
     1.691665         10.48
     1.691091          1.33
     1.688430          0.98
     1.685892          5.69
     1.685682          1.65
     1.685138          0.73
     1.683219          0.25
     1.682275          0.84
     1.679418          2.39
     1.678387          4.51
     1.674999          3.15
     1.674969          9.80
     1.673332          0.12
     1.672501          8.85
     1.672425          2.01
     1.671629         13.93
     1.670423          8.14
     1.668374         10.04
     1.668176          1.06
     1.666487          5.25
     1.663037          2.41
     1.662793          1.91
     1.662220          2.93
     1.661000          4.38
     1.660799         13.07
     1.658668          8.09
     1.657159          1.25
     1.653366         14.45
     1.652608          0.93
     1.649562         10.53
     1.647324          2.23
     1.647304          4.81
     1.646153          0.41
     1.645876          1.40
     1.644566          0.60
     1.643153          2.06
     1.642494          3.34
     1.641490          1.81
     1.641406          1.14
     1.641170          8.87
     1.639940          1.29
     1.638482          3.00
     1.636542          2.92
     1.633411          2.57
     1.627923          0.55
     1.627487          5.91
     1.625954          8.39
     1.625856          3.51
     1.624141          9.51
     1.624042          0.28
     1.621694          0.00
     1.621686          7.46
     1.620077          3.51
     1.619893          0.03
     1.617330          0.25
     1.616663          3.60
     1.615048          0.87
     1.606704          1.14
     1.606664          0.98
     1.605896          2.19
     1.604509          6.17
     1.603839          6.31
     1.602988          0.43
     1.602897          4.92
     1.597789          7.81
     1.593596          4.49
     1.587995          3.18
     1.584224          3.95
     1.583484          6.32
     1.581698          2.41
     1.580955          1.25
     1.580256          1.42
     1.579395          0.83
     1.576296          3.38
     1.575247          0.84
     1.574062          4.99
     1.570804          0.43
     1.568954          5.65
     1.568585          0.25
     1.567176          0.44
     1.566309          0.23
     1.563431          3.68
     1.561912          5.52
     1.560541          2.07
     1.558566          7.22
     1.557701         27.35
     1.554107          0.10
     1.553731          0.26
     1.551740          0.05
     1.551241          5.62
     1.547202          0.23
     1.545114          0.86
     1.541485         10.22
     1.537746          2.70
     1.537229          1.55
     1.535985          1.64
     1.533546          0.01
     1.530619          6.70
     1.529078         24.05
     1.528233          0.98
     1.528002          0.07
     1.526365          0.56
     1.525552          5.32
     1.524375          6.46
     1.523702          0.45
     1.519635          2.86
     1.519603          1.21
     1.519324          0.40
     1.516412          0.35
     1.516243          0.06
     1.515924          8.97
     1.515583          1.01
     1.515267          0.17
     1.512483         10.59
     1.511775          0.54
     1.509270         11.48
     1.509254          6.54
     1.507486          0.23
     1.507152          0.50
     1.506413          0.37
     1.506042          0.58
     1.504601          0.32
     1.504300          9.90
     1.504124          0.18
     1.503129          0.61
     1.501601          2.12
     1.500407          2.44
     1.500174          0.76
     1.499219          0.47
     1.499082         13.63
     1.498829          0.46
     1.496884          3.01
     1.494418          9.29
     1.493917          1.55
     1.491955          0.02
     1.489926          0.16
     1.489620          0.03
     1.484259          0.60
     1.483814          0.26
     1.483417          0.27
     1.481509          0.97
     1.480292          1.07
     1.479922          0.58
     1.478545          4.84
     1.477703          0.25
     1.477493          2.12
     1.475481          1.46
     1.473416          0.22
     1.470776          0.14
     1.469852          1.97
     1.468939          3.46
     1.468154          4.38
     1.467195          4.54
     1.467165          0.22
     1.467087          7.34
     1.466949          0.44
     1.466541          0.12
     1.465914          0.60
     1.464202          0.23
     1.463600          1.46
     1.463375          0.61
     1.462215          1.16
     1.460773          1.19
     1.460115          0.05
     1.459391          0.20
     1.459385          1.04
     1.457507          0.03
     1.457257          0.42
     1.457025          1.79
     1.456167          0.03
     1.455328          1.18
     1.454888          1.69
     1.453596          2.00
     1.452431          1.29
     1.451602          0.41
     1.451063          0.56
     1.448648          0.69
     1.446642          0.80
     1.445878          1.01
     1.445848          6.79
     1.445091          0.93
     1.445084          0.41
     1.443842          0.91
     1.443641          4.23
     1.440807          0.81
     1.439475          1.50
     1.438075          0.48
     1.438018          0.46
     1.437449          0.61
     1.436534          0.21
     1.436057          0.48
     1.436010          4.90
     1.434502          1.90
     1.434224          8.27
     1.431936          0.15
     1.431528          2.79
     1.431454          0.27
     1.430056          0.30
     1.429816          8.28
     1.428970          1.84
     1.428908          1.50
     1.426679          0.01
     1.426640          0.25
     1.426342          7.63
     1.425478          1.54
     1.423932          0.64
     1.423811         17.61
     1.422437          0.44
     1.421750          5.20
##############################################################################
###                            Comments                                    ###
##############################################################################
###   Diffraction pattern calculated by Match!. 
###   I/Ic calculated by Match!. 
###   Space group has been derived from given symmetry operations. 
##############################################################################


