##############################################################################
###               Crystal structure data exported by Match!                ###
##############################################################################
###                           Data published by:                           ###
###                                                                        ###
###               COD (Crystallography Open Database)
##############################################################################
data_1011200
_citation_journal_full    'Zeitschrift fuer Kristallographie, Kristallgeometrie, Kristallphysik,Kristallchemie (-144,1977)'
_citation_journal_volume  '63(1-6)'
_citation_page_first  '507'
_citation_page_last   '537'
_citation_year  '1926'
_citation_title  'XXIX. Kriterien f\"ur hexagonale Raumgruppen und die Kristallstruktur von\b-quarz'
loop_
_publ_author_name
  'Wyckoff Ralph W. G.'
_chemical_formula_sum  'O2 Si'
_chemical_name_mineral  'Quartz high'
_chemical_name_common  'Silicon oxide - \b'
_symmetry_space_group_name_H-M 'P 62 2 2'
_space_group_IT_number 180
_space_group_crystal_system 'hexagonal'
loop_
_symmetry_equiv_pos_as_xyz
   'x, y, z'
   'x-y, x, z+0.33333'
   '-y, x-y, z+0.66667'
   '-x, -y, z'
   '-x+y, -x, z+0.33333'
   'y, -x+y, z+0.66667'
   'x-y, -y, -z'
   '-x, -x+y, -z+0.33333'
   'y, x, -z+0.66667'
   '-y, -x, -z+0.66667'
   '-x+y, y, -z'
   'x, x-y, -z+0.33333'
_cell_length_a        5.01300
_cell_length_b        5.01300
_cell_length_c        5.47000
_cell_angle_alpha    90.0000
_cell_angle_beta     90.0000
_cell_angle_gamma   120.0000
_cell_formula_units_Z 3
loop_
_atom_site_label
_atom_site_fract_x
_atom_site_fract_y
_atom_site_fract_z
_atom_site_occupancy
_atom_site_B_iso_or_equiv
si      0.500   0.500   0.333    1.00000    1.000
o      0.197   -0.197   0.833    1.00000    1.000
_cell_measurement_wavelength    1.541874
_cell_measurement_radiation   'x-rays'
_exptl_crystal_density_diffrn    2.514000
loop_
_pd_peak_d_spacing
_pd_peak_intensity
     4.341385        119.78
     3.400524       1000.00
     2.506500         56.65
     2.314078         14.52
     2.278663          0.21
     2.170693         24.95
     2.017631         21.33
     1.847873        195.64
     1.823333          0.03
     1.700262          9.93
     1.681087          6.80
     1.640889          2.37
     1.571696         86.04
     1.474477          0.76
     1.447128         12.01
     1.407076         26.76
     1.398998          3.48
     1.396151         79.03
     1.304323          3.78
     1.279112         30.09
     1.253250         30.44
     1.221597          0.63
     1.219700         27.92
     1.204084          5.15
     1.200458         30.95
     1.175931         41.97
     1.157039          1.47
     1.139331          0.45
     1.133508          0.00
     1.102014         11.19
     1.085346          6.39
     1.064592          1.25
     1.060836         13.53
     1.050514          9.71
     1.032808          4.02
     1.008816          1.04
##############################################################################
###                            Comments                                    ###
##############################################################################
###   Diffraction pattern calculated by Match!. 
###   I/Ic calculated by Match!. 
###   Space group has been derived from given symmetry operations. 
##############################################################################


