##############################################################################
###               Crystal structure data exported by Match!                ###
##############################################################################
###                           Data published by:                           ###
###                                                                        ###
###               COD (Crystallography Open Database)
##############################################################################
data_2300130
_citation_journal_full    'Journal of Applied Crystallography'
_citation_journal_volume  '40(4)'
_citation_page_first  '761'
_citation_page_last   '770'
_citation_year  '2007'
_citation_title  'Crystal structures and thermal expansion of \a-MgSO~4~ and \b-MgSO~4~from 4.2 to 300K by neutron powder diffraction'
loop_
_publ_author_name
  'Fortes A. D.'
  'Wood I. G.'
  'Vocadlo L.'
  'Brand H. E. A.'
  'Knight K. S.'
_chemical_formula_sum  'Mg O4 S'
_chemical_name_common  'Magnesium sulfate'
_symmetry_space_group_name_H-M 'P b n m'
_space_group_IT_number 62
_space_group_crystal_system 'orthorhombic'
loop_
_symmetry_equiv_pos_as_xyz
   'x, y, z'
   '-x, -y, z+0.5'
   'x+0.5, -y+0.5, -z'
   '-x+0.5, y+0.5, -z+0.5'
   '-x, -y, -z'
   'x, y, -z+0.5'
   '-x+0.5, y+0.5, z'
   'x+0.5, -y+0.5, z+0.5'
_cell_length_a        4.74599
_cell_length_b        8.58310
_cell_length_c        6.70934
_cell_angle_alpha    90.0000
_cell_angle_beta     90.0000
_cell_angle_gamma    90.0000
_cell_formula_units_Z 4
loop_
_atom_site_label
_atom_site_fract_x
_atom_site_fract_y
_atom_site_fract_z
_atom_site_occupancy
_atom_site_B_iso_or_equiv
o      0.337   0.127   0.070    1.00000    1.170
o      0.464   0.352   0.250    1.00000    1.114
o      0.771   0.127   0.250    1.00000    1.052
s      0.478   0.181   0.250    1.00000    1.018
mg      0.000   0.000   0.000    1.00000    1.035
_cell_measurement_wavelength    1.541874
_cell_measurement_radiation   'x-rays'
_cell_measurement_temperature    300.000000
_exptl_crystal_density_diffrn    2.925000
loop_
_pd_peak_d_spacing
_pd_peak_intensity
     4.291550          1.55
     4.153335         35.16
     3.874603          4.20
     3.615244        396.30
     3.531451       1000.00
     3.354670         40.75
     3.183152         23.60
     2.875898          3.83
     2.642995        248.89
     2.609720         73.56
     2.450250        204.34
     2.372995         56.30
     2.309084        138.13
     2.301571          0.00
     2.287191         80.94
     2.164858         11.39
     2.145775         37.32
     2.076667          0.26
     2.043795         23.62
     2.023079         42.04
     1.983814          8.13
     1.983297          0.74
     1.978658         24.62
     1.969120         56.32
     1.955221          0.30
     1.937301          5.12
     1.889762          0.84
     1.877138          0.03
     1.829940          0.49
     1.826497         11.38
     1.807622         40.30
     1.765726        116.78
     1.762359          8.11
     1.689245          0.08
     1.677335         64.77
     1.651831          8.07
     1.614270          1.01
     1.604141          2.45
     1.599046          6.52
     1.591576         21.68
     1.569482         35.12
     1.562249          0.03
     1.555791         18.54
     1.555292         16.69
     1.548601         14.71
     1.548355          7.76
     1.539772         17.11
     1.521780          2.77
     1.515577         24.45
     1.484355          3.20
     1.483921          6.94
     1.471998         23.92
     1.454620         80.34
     1.449310          2.64
     1.437949         26.83
     1.430517         22.40
     1.414660          2.30
     1.411395         43.97
     1.399070          0.01
     1.390852          8.37
     1.384445          7.99
     1.384093         31.49
     1.369709         29.11
     1.369652          0.20
     1.361897          0.02
     1.357411          2.76
     1.355880          1.20
     1.352594          2.37
     1.341975          0.54
     1.321498          0.03
     1.315873          0.93
     1.308917          5.48
     1.304860          0.09
     1.296731          8.36
     1.291534          6.41
     1.291249          0.98
     1.284803          0.07
     1.280722         13.62
     1.279748          1.01
     1.277156         39.60
     1.276880         26.64
     1.273341          0.54
     1.273067          0.07
     1.268036         11.29
     1.251010          5.16
     1.236742          1.36
     1.236492          0.17
     1.235428          0.01
     1.225125         19.45
     1.205197         16.31
     1.205081          6.58
     1.190467          0.86
     1.187176          5.09
     1.186497          7.99
     1.181081          3.56
     1.177150          1.79
     1.176934          0.01
     1.175321          0.13
     1.169017          9.85
     1.168016          0.15
     1.163326          0.75
     1.163118          0.23
     1.157692          0.58
     1.157384          1.93
     1.154542          3.86
     1.150785          0.84
     1.146224          4.18
     1.143596          0.10
     1.140661          1.18
     1.137721          3.15
     1.127337          2.92
     1.127052          0.26
     1.119163          0.08
     1.118594          3.36
     1.118223          5.19
     1.111593          1.45
     1.109214          5.73
     1.106555          2.24
     1.106375          0.39
     1.099115         10.69
     1.095988          1.22
     1.089329          0.09
     1.088434         14.00
     1.082429         14.66
     1.082093          8.92
     1.081652          0.01
     1.081401          2.33
     1.079773         10.15
     1.075249          0.05
     1.074471          4.17
     1.072888          1.68
     1.070653          0.63
     1.067723         18.25
     1.061051          0.00
     1.060892          2.33
     1.059428          0.01
     1.055018          0.26
     1.048596         12.34
     1.048026          1.98
     1.046481          0.00
     1.041799          0.03
     1.040399          0.66
     1.038334          0.93
     1.036074          1.70
     1.033979          0.28
     1.032052         12.33
     1.031906          7.65
     1.026118          3.69
     1.025904          4.02
     1.023325          3.15
     1.021898          8.98
     1.018201          8.32
     1.017292          0.09
     1.016128          3.80
     1.014203          0.59
     1.011654          0.03
     1.011540          0.00
##############################################################################
###                            Comments                                    ###
##############################################################################
###   Sigma Ultra MgSO4 M7506 dried at 400 deg C for 24 hr.
###   Diffraction pattern calculated by Match!. 
###   I/Ic calculated by Match!. 
###   Space group has been derived from given symmetry operations. 
##############################################################################


