##############################################################################
###               Crystal structure data exported by Match!                ###
##############################################################################
###                           Data published by:                           ###
###                                                                        ###
###               COD (Crystallography Open Database)
##############################################################################
data_1001465
_citation_journal_full    'Acta Crystallographica C (39,1983-)'
_citation_journal_volume  '47'
_citation_page_first  '1583'
_citation_page_last   '1585'
_citation_year  '1991'
_citation_title  'Structure of a cobalt magnesium diphosphate: (Mg~x~Co~1-x~)~2~P~2~O~7~'
loop_
_publ_author_name
  'Riou D'
  'Leclaire A'
  'Raveau B'
_chemical_formula_sum  'Co0.92 Mg1.08 O7 P2'
_chemical_name_common  'Magnesium cobalt diphosphate (1.1/0.9/1)'
_symmetry_space_group_name_H-M 'P 1 21/c 1'
_space_group_IT_number 14
_space_group_crystal_system 'monoclinic'
loop_
_symmetry_equiv_pos_as_xyz
   'x, y, z'
   '-x, y+0.5, -z+0.5'
   '-x, -y, -z'
   'x, -y+0.5, z+0.5'
_cell_length_a        6.97700
_cell_length_b        8.33000
_cell_length_c        9.03200
_cell_angle_alpha    90.0000
_cell_angle_beta    113.7400
_cell_angle_gamma    90.0000
_cell_formula_units_Z 4
loop_
_atom_site_label
_atom_site_fract_x
_atom_site_fract_y
_atom_site_fract_z
_atom_site_occupancy
_atom_site_B_iso_or_equiv
mg      0.733   0.070   0.110    0.54000    1.000
co      0.733   0.070   0.110    0.46000    1.000
mg      0.799   0.442   0.173    0.54000    1.000
co      0.799   0.442   0.173    0.46000    1.000
p      0.031   0.227   0.467    1.00000    1.000
p      0.442   0.267   0.260    1.00000    1.000
o      0.249   0.327   0.101    1.00000    1.000
o      0.051   0.388   0.396    1.00000    1.000
o      0.876   0.264   0.048    1.00000    1.000
o      -0.017   0.091   0.345    1.00000    1.000
o      0.477   0.403   0.382    1.00000    1.000
o      0.390   0.110   0.314    1.00000    1.000
o      0.620   0.259   0.203    1.00000    1.000
_cell_measurement_wavelength    1.541874
_cell_measurement_radiation   'x-rays'
_exptl_crystal_density_diffrn    3.516000
loop_
_pd_peak_d_spacing
_pd_peak_intensity
     6.386619         34.54
     5.868059         12.18
     5.109178         36.72
     5.068377         35.83
     4.362827         10.87
     4.165000         64.72
     4.133864         48.06
     3.864826         12.62
     3.812295         78.43
     3.719669         19.39
     3.702960         11.62
     3.501916         43.34
     3.488695          5.51
     3.234419          0.38
     3.217289          5.78
     3.193309          4.60
     3.015108        636.15
     3.012609       1000.00
     2.987529         23.45
     2.981723         30.01
     2.967848        790.10
     2.934030         15.00
     2.830161         61.10
     2.795706          4.07
     2.674102         21.92
     2.632188         23.68
     2.616434         40.90
     2.559477          5.35
     2.554589          0.91
     2.551544         22.82
     2.546416        124.02
     2.534189        224.78
     2.518930          7.11
     2.439159          0.47
     2.416999         35.90
     2.342488          0.63
     2.330639          2.66
     2.308331         10.48
     2.304971          4.30
     2.298328          0.02
     2.259434          1.08
     2.249648          4.48
     2.231394         15.93
     2.224501          0.14
     2.214346          2.41
     2.181413          9.69
     2.172365          0.90
     2.171839         20.40
     2.149971        102.52
     2.143839          1.18
     2.128873          0.51
     2.110254          0.25
     2.106815        271.70
     2.095328          6.38
     2.087475          2.70
     2.082500          4.22
     2.076182         70.37
     2.066932         20.88
     2.062580         47.63
     2.040650         10.30
     2.027620          8.39
     2.019424          4.96
     2.018987         66.01
     2.011385          4.46
     2.006098          0.46
     1.982311          6.21
     1.979903          0.00
     1.979368          7.29
     1.962772          0.31
     1.956020          5.26
     1.932413         14.56
     1.931876          0.65
     1.918347          3.53
     1.914876          5.43
     1.914261          6.88
     1.906147          2.28
     1.895605          6.80
     1.879376         40.36
     1.873241          7.13
     1.869415         11.19
     1.859835          0.04
     1.851480        127.73
     1.839792          0.76
     1.788047          4.50
     1.775055          3.62
     1.769883          1.29
     1.768922         13.50
     1.752159          3.59
     1.750958          0.26
     1.747951         26.54
     1.744957          3.13
     1.744347          4.59
     1.743972          8.85
     1.742411          0.06
     1.736490          4.25
     1.730337          0.15
     1.726103          4.55
     1.718350         71.01
     1.715361          4.85
     1.712420         10.04
     1.706963         18.76
     1.704698         34.56
     1.703059          5.80
     1.696910         43.54
     1.689459         40.99
     1.677522          5.38
     1.665950          6.74
     1.661484          4.72
     1.657997          0.25
     1.646611         14.72
     1.646303          2.95
     1.642530          3.96
     1.640325         15.03
     1.639420          1.45
     1.635662          7.04
     1.633173         24.61
     1.628163          0.87
     1.624634         32.30
     1.621899         64.08
     1.617209         89.54
     1.613354          2.61
     1.612055         65.57
     1.611500         11.69
     1.608645          0.03
     1.596655         23.09
     1.587567          0.00
     1.583932          0.05
     1.578303        196.03
     1.574180          1.29
     1.568109          0.06
     1.560354          5.11
     1.556385          0.59
     1.552895          1.19
     1.551740         15.50
     1.546243          4.01
     1.545232         24.97
     1.542820          4.44
     1.536858          0.00
     1.528228          0.17
     1.528002         33.04
     1.520551          0.59
     1.507554         12.55
     1.506305          6.75
     1.505815          2.75
     1.504582          0.83
     1.503316          0.77
     1.501236          0.28
     1.497954          0.64
     1.493764          1.82
     1.491896          6.34
     1.490862          7.65
     1.489179          0.15
     1.488674          0.59
     1.483924         28.49
     1.481072         31.63
     1.480624          0.26
     1.477064          3.16
     1.476837         66.93
     1.474926          3.01
     1.467015         44.00
     1.462643          0.03
     1.460924          4.19
     1.457645          1.56
     1.457528          0.05
     1.454276          9.51
     1.452758          0.45
     1.452336          0.62
     1.450034          0.48
     1.442013          1.05
     1.439931         23.20
     1.432607          1.36
     1.432439          3.05
     1.425733          3.63
     1.420707          0.86
     1.416301          3.75
     1.415081          0.23
     1.413702          0.58
     1.410945          0.00
     1.409316          2.12
     1.408642         11.10
     1.399359          1.35
     1.398078         16.64
     1.397853         24.57
     1.397462          0.48
     1.390324          3.36
     1.388333         49.57
     1.388162         17.30
     1.384135          1.80
     1.381260         12.11
     1.379430          2.40
     1.377955          0.01
     1.373271          2.60
     1.372987          2.32
     1.369280          0.41
     1.369164          6.49
     1.359480          1.93
     1.358441          6.94
     1.358303          0.07
     1.357423          1.95
     1.356649          0.00
     1.355076         18.94
     1.351848          0.11
     1.350905          0.18
     1.348621          1.70
     1.348195          0.01
     1.346190         46.43
     1.344792          0.01
     1.340597         24.01
     1.338842         18.31
     1.337051          0.16
     1.333670         13.56
     1.329546         30.89
     1.327603         31.40
     1.324027          1.70
     1.322964          4.27
     1.322856         71.65
     1.322760          1.03
     1.321325          0.21
     1.320819          1.09
     1.320493          0.44
     1.318345          0.25
     1.317064          2.60
     1.316943          6.26
     1.316094          2.03
     1.315486          6.33
     1.312006         19.32
     1.309985          2.67
     1.308750          6.18
     1.308217          6.26
     1.305009          5.83
     1.303837          0.35
     1.302565          3.30
     1.297106          5.29
     1.295103          0.78
     1.294971          0.63
     1.293593          4.87
     1.291366          1.66
     1.289906          0.31
     1.289660          2.49
     1.288275          1.24
     1.281479          0.11
     1.279739          1.55
     1.278440          0.17
     1.277324          5.19
     1.277294          1.17
     1.275772          0.09
     1.274285          0.01
     1.273208          1.41
     1.270765          0.18
     1.267094          1.21
     1.262567         15.19
     1.260632          1.29
     1.259465          4.33
     1.259182          4.35
     1.258205          5.28
     1.257863          1.26
     1.257542         48.95
     1.252249          0.45
     1.248721          0.03
     1.247402          4.45
     1.244615          0.43
     1.241641          0.00
     1.241274         13.47
     1.239890         11.71
     1.238334          0.03
     1.235532          0.22
     1.234320          0.13
     1.233672          2.26
     1.233647          2.30
     1.231780         17.14
     1.229047          0.15
     1.221186          0.05
     1.220235          0.00
     1.220136          2.46
     1.219579          2.60
     1.218123          0.03
     1.217795          0.64
     1.217238          1.66
     1.212794          5.29
     1.211786          0.69
     1.211333          1.19
     1.210800         10.38
     1.210314          4.66
     1.209472          1.00
     1.208499         10.65
     1.204662          0.12
     1.203624          0.13
     1.201888          0.27
     1.199219          0.03
     1.198209          0.72
     1.198181          1.82
     1.197729          1.22
     1.196535          0.05
     1.194960          9.20
     1.194178          0.24
     1.193122          0.32
     1.192323          1.46
     1.189982          0.07
     1.189727          6.45
     1.188166          3.17
     1.181462          0.14
     1.180199          0.17
     1.179990          0.08
     1.178400          1.20
     1.177904          3.19
     1.177862          0.62
     1.177429          0.05
     1.173612          8.29
     1.172715          0.00
     1.171244          0.59
     1.170362          4.90
     1.169866          0.86
     1.169654          2.53
     1.169506          0.92
     1.169407          0.10
     1.167305          0.68
     1.165320          0.00
     1.162898          0.06
     1.162667         15.42
     1.162642          0.05
     1.160427         18.69
     1.160405          0.01
     1.157798          9.66
     1.157458          2.68
     1.157039          2.09
     1.155065          0.21
     1.154165          3.31
     1.152741          0.19
     1.152485          0.21
     1.151486          1.73
     1.149164          0.23
     1.148495          0.02
     1.148060          0.28
     1.146657          5.06
     1.146000          1.76
     1.143831          0.02
     1.143654          2.75
     1.143561          8.83
     1.143244          0.61
     1.141529          0.04
     1.137854          1.39
     1.137732         22.35
     1.137691          0.43
     1.136299          0.00
     1.130913          3.25
     1.129717          0.06
     1.126256          0.09
     1.124824          0.68
     1.124696          0.00
     1.124402          0.30
     1.119836          1.37
     1.118147          1.22
     1.116811          0.45
     1.116618          0.44
     1.115697          0.01
     1.115089          0.04
     1.114707          0.00
     1.114363          0.33
     1.114297         16.39
     1.112685          0.01
     1.112250          5.17
     1.110795          2.03
     1.109869          0.21
     1.109847          0.23
     1.108845          3.46
     1.108096          0.12
     1.107173          2.12
     1.106612          0.89
     1.104520          2.05
     1.104334          0.12
     1.104220          1.27
     1.102890          0.02
     1.101687          0.02
     1.099775          0.83
     1.098957          0.06
     1.098851         11.40
     1.097956          0.06
     1.097557          0.00
     1.096315          7.91
     1.095780          0.18
     1.095585          0.19
     1.095343          0.71
     1.093294          0.05
     1.092502          0.14
     1.092177          0.14
     1.092132          0.37
     1.091862          1.37
     1.091065          0.31
     1.090707          4.29
     1.088826          0.74
     1.088241          0.63
     1.086863          0.03
     1.086653          0.01
     1.086182          0.59
     1.086025          0.04
     1.085920          0.28
     1.085601          1.85
     1.085540          1.43
     1.085062         11.76
     1.084755          2.73
     1.082602          4.19
     1.082302          0.00
     1.081475          0.03
     1.078479          0.00
     1.078140          0.01
     1.076757         18.03
     1.076217          1.56
     1.075385          6.30
     1.075081          0.80
     1.074985          0.03
     1.073169          0.48
     1.072430          1.47
     1.071919          0.40
     1.070416         14.04
     1.070114          6.15
     1.069221          0.19
     1.068352          0.03
     1.068149          1.32
     1.066470          1.10
     1.065762          0.13
     1.065058          0.10
     1.064436          0.93
     1.063258          0.49
     1.063153          1.11
     1.061820          0.73
     1.061292          0.52
     1.060312          0.09
     1.057719          0.03
     1.056622          0.35
     1.056173          0.92
     1.055851          0.03
     1.055127          5.49
     1.053408         11.27
     1.052750         33.01
     1.051899          0.04
     1.050744          0.00
     1.049385          0.90
     1.047664          2.40
     1.047373          1.71
     1.046736          3.08
     1.046718          4.63
     1.046422         25.25
     1.044668          0.00
     1.043738          0.16
     1.042530          1.11
     1.042248          0.22
     1.042194          1.15
     1.041870          1.12
     1.041250          0.17
     1.040458          0.00
     1.039327          1.10
     1.038733          1.44
     1.038091          1.18
     1.035250          0.78
     1.034524          0.78
     1.033935          0.06
     1.033466          0.22
     1.033089          0.00
     1.032843          0.18
     1.032797          8.80
     1.031834          1.02
     1.031292          0.32
     1.031290          0.07
     1.028788          0.23
     1.028017          2.87
     1.027681          0.45
     1.027371         12.49
     1.025603          0.96
     1.024029          0.41
     1.024008          1.78
     1.021836          1.23
     1.020325          0.70
     1.019710          0.02
     1.016124          4.97
     1.015193          0.04
     1.015155          0.00
     1.014384          2.43
     1.013810          5.26
     1.013675          0.44
     1.013570          0.11
     1.012805         13.19
     1.011921          2.54
     1.011841          1.36
     1.011414          2.32
     1.011286          0.00
     1.011237          2.08
     1.010927          3.24
     1.009712          0.00
     1.009493          0.41
     1.007426         12.23
     1.006716          1.08
     1.006468          0.04
##############################################################################
###                            Comments                                    ###
##############################################################################
###   Diffraction pattern calculated by Match!. 
###   I/Ic calculated by Match!. 
##############################################################################


