##############################################################################
###               Crystal structure data exported by Match!                ###
##############################################################################
###                           Data published by:                           ###
###                                                                        ###
###               COD (Crystallography Open Database)
##############################################################################
data_9015196
_citation_journal_full    'Proceedings of the Royal Society of London A'
_citation_journal_volume  '156'
_citation_page_first  '462'
_citation_page_last   '470'
_citation_year  '1936'
_citation_title  'The Crystal Structure of (CdSO4)3(H2O)8_cod_database_code 1010534'
loop_
_publ_author_name
  'Lipson H.'
_chemical_formula_sum  'Cd3 O20 S3'
_symmetry_space_group_name_H-M 'I 1 2/a 1'
_space_group_IT_number 15
_space_group_crystal_system 'monoclinic'
loop_
_symmetry_equiv_pos_as_xyz
   'x, y, z'
   'x+0.5, y+0.5, z+0.5'
   '-x+0.5, y, -z'
   '-x, y+0.5, -z+0.5'
   '-x, -y, -z'
   '-x+0.5, -y+0.5, -z+0.5'
   'x+0.5, -y, z'
   'x, -y+0.5, z+0.5'
_cell_length_a        9.44000
_cell_length_b       11.87000
_cell_length_c       16.49000
_cell_angle_alpha    90.0000
_cell_angle_beta    117.2700
_cell_angle_gamma    90.0000
loop_
_atom_site_label
_atom_site_fract_x
_atom_site_fract_y
_atom_site_fract_z
_atom_site_occupancy
_atom_site_B_iso_or_equiv
cd      0.250   0.050   0.000    1.00000    1.000
cd      0.120   0.405   0.155    1.00000    1.000
s      0.250   0.500   0.000    1.00000    1.000
o      0.390   0.580   0.020    1.00000    1.000
o      0.290   0.420   0.080    1.00000    1.000
s      0.080   0.120   0.130    1.00000    1.000
o      0.170   0.030   0.110    1.00000    1.000
o      0.090   0.230   0.090    1.00000    1.000
o      -0.100   0.080   0.090    1.00000    1.000
o      0.150   0.130   0.230    1.00000    1.000
o      0.410   0.190   0.100    1.00000    1.000
o      0.610   0.390   0.210    1.00000    1.000
o      0.490   0.580   0.230    1.00000    1.000
o      0.690   0.240   0.110    1.00000    1.000
_cell_measurement_wavelength    1.541874
_cell_measurement_radiation   'x-rays'
_exptl_crystal_density_diffrn    3.047000
loop_
_pd_peak_d_spacing
_pd_peak_intensity
     9.224480          2.69
     7.328628        116.33
     6.851762       1000.00
     6.322312        621.54
     5.935000        807.47
     5.012755        104.10
     4.681463         90.48
     4.612240        124.91
     4.518002        493.31
     4.316777        360.88
     4.275744         20.55
     4.270944        222.70
     4.195406         56.84
     4.045645         47.65
     4.011809        279.57
     3.893304          0.00
     3.819933          0.73
     3.735052        684.22
     3.675623        106.69
     3.664314         76.02
     3.578742        672.96
     3.496485        349.20
     3.461314         30.27
     3.425881        115.37
     3.161156        241.01
     3.117925         83.76
     3.082599        651.38
     3.074827          7.24
     3.059399        172.17
     3.031125          2.15
     3.009063          8.17
     2.993411        337.85
     2.967500        100.98
     2.912634          1.61
     2.886850        366.16
     2.866444          0.73
     2.854212          0.68
     2.845948         37.57
     2.828819         54.81
     2.821883         50.57
     2.762327          5.31
     2.750564        172.36
     2.735613        181.61
     2.722382         69.16
     2.721936        149.91
     2.686834         26.01
     2.673880          9.20
     2.670260         35.31
     2.633721         59.97
     2.605534         95.76
     2.577616         12.22
     2.506378        123.56
     2.493590         28.20
     2.480324          3.34
     2.474144         73.73
     2.457217          8.39
     2.442876         48.05
     2.436991          0.00
     2.422709         55.09
     2.378453        241.11
     2.355422         18.40
     2.343460         63.22
     2.341724         86.22
     2.340732        124.62
     2.336170          3.06
     2.323448        102.44
     2.317043         65.02
     2.313523         19.67
     2.308299         90.76
     2.306120         39.91
     2.288760         10.00
     2.284331         24.84
     2.283921          2.87
     2.282135        165.19
     2.262495         14.87
     2.259001        108.50
     2.257525         88.05
     2.245900         26.28
     2.230808        205.39
     2.226623         61.94
     2.198599         11.30
     2.196405          4.41
     2.186335         20.10
     2.177498         56.89
     2.158389         45.10
     2.151652          2.84
     2.150550          2.68
     2.139225         16.00
     2.137872         17.55
     2.135472          0.02
     2.135274        101.65
     2.114347         81.53
     2.112881         60.52
     2.107441         43.93
     2.107437          2.86
     2.097703         43.07
     2.095045        178.58
     2.078670          6.93
     2.069117          1.05
     2.062056          1.67
     2.060648          3.20
     2.057117          9.32
     2.026054          1.35
     2.022822          0.15
     2.022543          1.05
     2.016226          8.28
     2.005905          2.20
     1.984948        181.16
     1.984161         30.72
     1.981115        142.71
     1.980172        192.24
     1.978333        100.72
     1.977800          3.66
     1.966921          2.70
     1.962688          3.48
     1.946652          0.02
     1.941944         15.12
     1.938984          0.70
     1.935597         35.17
     1.930242         36.19
     1.928755         47.55
     1.909967          2.82
     1.903099         16.73
     1.892602         19.04
     1.886025         12.71
     1.885166         60.90
     1.883727         21.05
     1.867526         17.11
     1.864561          0.58
     1.859362          3.27
     1.855900         16.38
     1.855814          9.16
     1.850715          5.27
     1.844896          0.34
     1.838292         11.71
     1.837812          0.30
     1.832157         42.76
     1.829357         23.06
     1.826279         19.35
     1.822299         27.07
     1.814626         32.90
     1.812334         51.89
     1.809928         22.39
     1.809289         16.69
     1.807095         20.48
     1.806894         74.98
     1.805317         17.29
     1.794360          0.40
     1.793780         15.95
     1.791528          2.24
     1.789371          0.66
     1.787425         91.93
     1.785805         33.81
     1.785708         20.77
     1.785158          0.30
     1.783150         10.69
     1.781416         13.75
     1.777866          0.22
     1.765433          0.00
     1.759997         23.32
     1.752528          1.24
     1.750639         16.08
     1.748243         18.47
     1.741940        106.74
     1.740825         19.93
     1.735325          0.97
     1.730657         13.52
     1.730438          8.81
     1.718229         13.55
     1.712941         70.19
     1.709501          2.41
     1.707097          1.55
     1.703953         10.41
     1.693158         13.64
     1.692586         82.81
     1.689488          0.94
     1.688448          7.09
     1.688202          4.93
     1.684479          0.10
     1.684143        102.21
     1.676959         20.90
     1.673257         13.74
     1.671277         12.92
     1.670918          3.09
     1.664951         48.85
     1.662113          0.04
     1.661951         17.59
     1.661638          0.02
     1.659760          7.00
     1.659605         99.74
     1.658382          5.09
     1.653766          1.50
     1.653726          0.72
     1.653644         90.11
     1.647131         17.46
     1.639482          2.31
     1.636779          7.92
     1.628933         15.02
     1.624757         15.18
     1.623198         19.89
     1.613469         50.19
     1.613002         56.22
     1.605527         30.70
     1.601971         31.25
     1.600301          8.33
     1.592449         31.30
     1.591743         20.45
     1.590116          1.08
     1.588490          1.50
     1.583642         49.19
     1.583574          1.36
     1.581280          2.96
     1.580578          4.02
     1.577875         14.56
     1.577648          5.97
     1.573459         14.43
     1.570347          4.35
     1.568163          6.38
     1.567533          9.05
     1.565560          0.60
     1.561083          7.36
     1.560488          7.90
     1.559347         25.44
     1.558962          0.23
     1.557443          3.45
     1.548118          9.22
     1.545197         61.16
     1.544945          1.10
     1.544801          3.75
     1.541299         42.49
     1.538580          7.91
     1.537413          9.93
     1.537411         23.19
     1.536948          0.86
     1.535480          1.10
     1.535478         19.59
     1.535114          5.20
     1.533702         51.10
     1.533545          8.85
     1.533238         26.27
     1.531779          0.05
     1.529700         10.31
     1.525104          3.66
     1.518712          0.02
     1.518553         77.54
     1.515563          3.42
     1.515168         49.39
     1.514560          3.99
     1.514382          1.66
     1.513388          0.83
     1.511450         61.19
     1.510960         12.50
     1.509193          9.95
     1.509019         14.31
     1.506651         40.38
     1.506001          0.77
     1.504531          4.02
     1.497996          5.40
     1.496706         19.68
     1.496637          0.02
     1.491814         18.68
     1.491515          5.29
     1.488105         26.48
     1.485627          3.60
     1.483750          0.00
     1.482584          1.97
     1.482326          5.11
     1.481993          2.81
     1.477675         22.57
     1.473353         14.68
     1.469299         12.82
     1.467829          0.12
     1.465726          0.41
     1.465463          1.00
     1.464496         29.40
     1.461705          1.98
     1.460331         22.27
     1.460137          6.82
     1.459967          6.05
     1.459393         13.52
     1.459067          2.07
     1.456317         24.97
     1.454245          7.24
     1.453156          0.49
     1.452586         20.02
     1.450033         30.15
     1.448575          3.08
##############################################################################
###                            Comments                                    ###
##############################################################################
###   Diffraction pattern calculated by Match!. 
###   I/Ic calculated by Match!. 
###   Space group has been derived from given symmetry operations. 
##############################################################################


