##############################################################################
###               Crystal structure data exported by Match!                ###
##############################################################################
###                           Data published by:                           ###
###                                                                        ###
###               COD (Crystallography Open Database)
##############################################################################
data_9005319
_citation_journal_full    'European Journal of Mineralogy'
_citation_journal_volume  '9'
_citation_page_first  '1183'
_citation_page_last   '1190'
_citation_year  '1997'
_citation_title  'Cation site ordering in phengite 3T from the Dora-Mairamassif (western Alps): a variable-temperature neutronpowder diffraction studyNote: at T = 293 KLocality: Dora-Maira massif, western Alps'
loop_
_publ_author_name
  'Pavese A.'
  'Ferraris G.'
  'Prencipe M.'
  'Ibberson R.'
_chemical_formula_sum  'Al1.788 H2 K Mg0.64 O12 Si3.572'
_chemical_name_mineral  'Aluminoceladonite'
_symmetry_space_group_name_H-M 'P 31 1 2'
_space_group_IT_number 151
_space_group_crystal_system 'trigonal (hexagonal axes)'
loop_
_symmetry_equiv_pos_as_xyz
   'x, y, z'
   '-y, x-y, z+0.33333'
   '-x+y, -x, z+0.66667'
   '-y, -x, -z+0.66667'
   '-x+y, y, -z+0.33333'
   'x, x-y, -z'
_cell_length_a        5.21379
_cell_length_b        5.21379
_cell_length_c       29.73820
_cell_angle_alpha    90.0000
_cell_angle_beta     90.0000
_cell_angle_gamma   120.0000
loop_
_atom_site_label
_atom_site_fract_x
_atom_site_fract_y
_atom_site_fract_z
_atom_site_occupancy
_atom_site_B_iso_or_equiv
k      0.129   0.258   0.167    1.00000    2.684
al      0.772   0.886   0.000    1.00000    1.500
al      0.438   0.219   0.000    0.36000    2.605
mg      0.438   0.219   0.000    0.64000    2.605
si      0.785   0.577   0.089    0.78600    1.658
al      0.785   0.577   0.089    0.21400    1.658
si      0.466   0.920   0.091    1.00000    1.658
o      0.756   0.569   0.035    1.00000    1.658
o      0.491   0.934   0.037    1.00000    1.973
o      0.661   0.781   0.112    1.00000    2.921
o      0.123   0.712   0.107    1.00000    1.894
o      0.613   0.252   0.114    1.00000    1.658
o      0.120   0.197   0.036    1.00000    2.210
h      0.147   0.387   0.038    1.00000    6.079
_cell_measurement_wavelength    1.541874
_cell_measurement_radiation   'x-rays'
_cell_measurement_temperature    293.000000
_exptl_crystal_density_diffrn    2.827000
loop_
_pd_peak_d_spacing
_pd_peak_intensity
     9.912733        509.13
     4.956367        254.65
     4.515275        181.72
     4.464111        824.53
     4.320462         97.77
     4.109072        122.04
     3.859268        664.86
     3.596327        662.41
     3.337851        911.74
     3.304244        437.30
     3.094086        769.62
     2.869847       1000.00
     2.666517        196.40
     2.606895         28.09
     2.596936        659.14
     2.567730        941.18
     2.521169          5.81
     2.483560        159.23
     2.478183         37.23
     2.460044        202.42
     2.387617        614.44
     2.319498         13.66
     2.307219          1.59
     2.257637        110.86
     2.251159         66.88
     2.232055         77.01
     2.221922         39.07
     2.201268        178.75
     2.172483          4.59
     2.160231         74.73
     2.134355        433.69
     2.110693         45.49
     2.054536        115.48
     2.046625          3.84
     2.040614         13.07
     1.993615          7.44
     1.982547        237.73
     1.960319        205.28
     1.929634         13.17
     1.922088          7.94
     1.876567         14.19
     1.864075         34.54
     1.815273         10.83
     1.798163         13.11
     1.796120         18.63
     1.732869         47.94
     1.719427        100.78
     1.718721          6.04
     1.706613          8.75
     1.703810         58.21
     1.695482          9.87
     1.681870         33.29
     1.668925         18.34
     1.663352         60.93
     1.652122          3.61
     1.646715        424.10
     1.640418        119.95
     1.631169          6.16
     1.613635        186.41
     1.606863         25.92
     1.583612         78.91
     1.578048          8.01
     1.551524         14.91
     1.550970        140.36
     1.547043         13.11
     1.516308         35.64
     1.513377        180.83
     1.505092        398.40
     1.503168         18.95
     1.497440          8.47
     1.489690          9.28
     1.488037         62.41
     1.480190         51.80
     1.478841         20.78
     1.475166          0.70
     1.459098          1.89
     1.452578         30.39
     1.443126          7.98
     1.440154          0.01
     1.434923         35.82
     1.418690          3.06
     1.416105         10.55
     1.412303         27.16
     1.405563         15.68
     1.395481          2.39
     1.395077          0.12
     1.382785         21.62
     1.369691          3.54
     1.367884          9.96
     1.351210          3.43
     1.342895          3.36
     1.341887        213.61
     1.333259        115.34
     1.330412          4.19
     1.315033          2.98
     1.303447         24.51
     1.302197        103.73
     1.298468        128.68
     1.294953         19.78
     1.293405          7.71
     1.292323          3.04
     1.291585         29.96
     1.286423        113.61
     1.286285         25.87
     1.283865          0.49
     1.273230         71.09
     1.260585          3.85
     1.257348          8.04
     1.257072          5.49
     1.252312          5.72
     1.251203         38.55
     1.247894         10.69
     1.246115         47.48
     1.244362          2.54
     1.243007          1.11
     1.242436         11.84
     1.241780         35.16
     1.239092         24.75
     1.234915         16.17
     1.230022          0.45
     1.228061         10.75
     1.225442         45.11
     1.221572          3.38
     1.214155         22.64
     1.212516          1.79
     1.201210         30.83
     1.200008         11.05
     1.199639         26.89
     1.198776         43.93
     1.194915          3.89
     1.193809          0.78
     1.187024         19.24
     1.186775         53.66
     1.174107          7.44
     1.171029          4.45
     1.169677          3.72
     1.159749          5.28
     1.158320         10.27
     1.154150         24.49
     1.153609          4.01
     1.153510         15.39
     1.150281          3.15
     1.140916          0.18
     1.136319          1.16
     1.132503         10.34
     1.128819          1.25
     1.128006          1.25
     1.125580         11.67
     1.121990          0.04
     1.121570          4.82
     1.121087         32.35
     1.119108          0.55
     1.117707          1.54
     1.116028         10.00
     1.112617          9.55
     1.110961         81.29
     1.109021          3.42
     1.108757          1.53
     1.101415          0.63
     1.100634          2.78
     1.098478          2.15
     1.090963          1.75
     1.089787          7.14
     1.089139          6.64
     1.086241          0.70
     1.084878          2.76
     1.082190         10.41
     1.080116          2.53
     1.078787          4.20
     1.070040          1.85
     1.068204          0.53
     1.067178         49.16
     1.059622          8.79
     1.058773          1.66
     1.057774          2.00
     1.055346          0.38
     1.052386          5.10
     1.047398         43.08
     1.045200          0.26
     1.041662          4.20
     1.038564          0.75
     1.035875          2.05
     1.035247          3.95
     1.033863          0.34
     1.033370          0.59
     1.031362         39.01
     1.030590          0.51
     1.030265          0.68
     1.027268          0.88
     1.025964          5.40
     1.023312          0.11
     1.020513          4.45
     1.020307          3.24
     1.018274          1.77
     1.014577          1.22
     1.013966         39.33
     1.012280          2.23
     1.006390          6.17
##############################################################################
###                            Comments                                    ###
##############################################################################
###   Diffraction pattern calculated by Match!. 
###   I/Ic calculated by Match!. 
###   Space group has been derived from given symmetry operations. 
##############################################################################


