##############################################################################
###               Crystal structure data exported by Match!                ###
##############################################################################
###                           Data published by:                           ###
###                                                                        ###
###               COD (Crystallography Open Database)
##############################################################################
data_7204658
_citation_journal_full    'Journal of Materials Chemistry'
_citation_journal_volume  '13(8)'
_citation_page_first  '1950'
_citation_year  '2003'
_citation_title  'Synthesis, structure and magnetic characterisation of a new layeredammonium manganese(ii) diphosphate hydrate,(NH4)2[Mn3(P2O7)2(H2O)2]Electronic supplementary information (ESI)available: powder XRD data, atomic coordinates and thermal parameters,IR data, bond valence calculations, TGA. Seehttp://www.rsc.org/suppdata/jm/b3/b304003h/'
loop_
_publ_author_name
  'Chippindale Ann M.'
  'Gaslain Fabrice O. M.'
  'Bond Andrew D.'
  'Powell Anthony V.'
_chemical_formula_sum  'H12 Mn3 N2 O16 P4'
_chemical_name_common  'ammonium manganese(II) pyrophosphate hydrate'
_symmetry_space_group_name_H-M 'P 1 21/a 1'
_space_group_IT_number 14
_space_group_crystal_system 'monoclinic'
loop_
_symmetry_equiv_pos_as_xyz
   'x, y, z'
   '-x+0.5, y+0.5, -z'
   '-x, -y, -z'
   'x+0.5, -y+0.5, z'
_cell_length_a        9.46100
_cell_length_b        8.35650
_cell_length_c        9.47700
_cell_angle_alpha    90.0000
_cell_angle_beta     99.9080
_cell_angle_gamma    90.0000
loop_
_atom_site_label
_atom_site_fract_x
_atom_site_fract_y
_atom_site_fract_z
_atom_site_occupancy
_atom_site_B_iso_or_equiv
mn      0.501   0.360   0.134    1.00000    0.994
mn      0.500   0.000   0.000    1.00000    1.002
p      0.237   0.444   0.297    1.00000    0.884
p      0.290   0.698   0.098    1.00000    0.821
o      0.641   0.141   -0.132    1.00000    1.200
o      0.616   0.121   0.185    1.00000    1.176
o      0.358   0.202   -0.005    1.00000    1.136
o      0.389   0.579   0.042    1.00000    1.081
o      0.671   0.487   0.274    1.00000    1.855
o      0.378   0.358   0.298    1.00000    1.373
o      0.263   0.629   0.251    1.00000    1.042
o      0.199   0.459   0.444    1.00000    1.271
n      0.486   0.221   0.556    1.00000    2.226
h      0.579   0.172   0.540    1.00000    3.947
h      0.451   0.297   0.477    1.00000    3.947
h      0.413   0.135   0.559    1.00000    3.947
h      0.503   0.280   0.650    1.00000    3.947
h      0.711   0.505   0.377    1.00000    3.947
h      0.744   0.537   0.224    1.00000    3.947
_cell_measurement_wavelength    1.541874
_cell_measurement_radiation   'x-rays'
_cell_measurement_temperature    293.000000
_exptl_crystal_density_diffrn    2.630000
_exptl_crystal_colour            'colourless'
loop_
_pd_peak_d_spacing
_pd_peak_intensity
     9.335654       1000.00
     6.226433         35.52
     6.221751          7.50
     5.475721        141.35
     4.922937        140.41
     4.667827          0.24
     4.659946          0.19
     4.489483         41.58
     4.178250          9.81
     4.075161          0.01
     4.069914         19.67
     3.958477         19.36
     3.954868         18.32
     3.909256         41.50
     3.813713          6.15
     3.812636          2.80
     3.624389         15.44
     3.619947          1.57
     3.543538         67.89
     3.540949        111.37
     3.445759        142.41
     3.325108        200.84
     3.113217          6.37
     3.111885          0.02
     3.110875          6.02
     3.060253          0.41
     3.058584        201.93
     3.046186         76.09
     2.920629         11.34
     2.916766          3.17
     2.916242         19.41
     2.911917          0.42
     2.861964         90.91
     2.855980         66.08
     2.854624         30.02
     2.821837         33.06
     2.737860         24.83
     2.673521         59.17
     2.671668         11.12
     2.669218         47.34
     2.668849         37.56
     2.663462          7.64
     2.660531         14.83
     2.600133          2.55
     2.533276         62.15
     2.498493          3.11
     2.496073         31.83
     2.495745         32.29
     2.493032          3.63
     2.461469         25.04
     2.403907          0.24
     2.391975          0.02
     2.390913         17.97
     2.367700          0.31
     2.366927          3.71
     2.357962          0.60
     2.338482          2.75
     2.337241          5.72
     2.333913          0.28
     2.331741         10.29
     2.329973         23.68
     2.329774          9.40
     2.321174         63.06
     2.310218          0.91
     2.309021          0.00
     2.272761         31.07
     2.269349          0.52
     2.269207          8.94
     2.268527          2.73
     2.247887          1.59
     2.247382         24.88
     2.244742          8.35
     2.244366          7.55
     2.208588          0.87
     2.174435          0.90
     2.170267         11.09
     2.167889         11.48
     2.107080          4.52
     2.104360          0.06
     2.091686          0.64
     2.089125          3.94
     2.083658          3.62
     2.082780         40.80
     2.077057          0.76
     2.075667         30.85
     2.075478          1.41
     2.073917         27.96
     2.056051          2.28
     2.055640          8.63
     2.053524          2.65
     2.041216          0.14
     2.038702          4.73
     2.038538         18.73
     2.037580         22.94
     2.034957          2.45
     2.007418          1.97
     1.983977         16.89
     1.982917          1.00
     1.982368          0.26
     1.981612          9.83
     1.979238          0.48
     1.978257          0.73
     1.977434          0.20
     1.977055         30.65
     1.976168          3.99
     1.973355         19.90
     1.956371          0.17
     1.954628          4.74
     1.930959          0.04
     1.928866         11.50
     1.906856         16.87
     1.906318          3.08
     1.904865          2.71
     1.903256          6.86
     1.894489          0.45
     1.894093          0.62
     1.867131          4.98
     1.847725         27.83
     1.846333          7.89
     1.844792          2.02
     1.842890          0.70
     1.842525          4.23
     1.834893          4.53
     1.834054          6.01
     1.826480         20.66
     1.825240          0.63
     1.822200         10.90
     1.819898          0.25
     1.819313          1.94
     1.819269          0.00
     1.812194          1.17
     1.809974          0.74
     1.802852          2.37
     1.801418          6.45
     1.800467          5.49
     1.799717          0.50
     1.788956          0.01
     1.787179          0.08
     1.771769          0.02
     1.771028          1.15
     1.770474          0.50
     1.749081         10.84
     1.747836          0.26
     1.735430          0.30
     1.734619          1.11
     1.734509         19.21
     1.734334          2.47
     1.733597         12.58
     1.731908          7.90
     1.727914          2.69
     1.725511         12.34
     1.723121          0.29
     1.722879          4.47
     1.715495          0.03
     1.714026          7.95
     1.704668          1.20
     1.702268          0.86
     1.701395          0.76
     1.699867          7.08
     1.692778         19.25
     1.692119          4.28
     1.688797          3.98
     1.686836         14.74
     1.679051          8.29
     1.678592          1.37
     1.676551          2.63
     1.675819          0.06
     1.662554          4.05
     1.647072          0.01
     1.646465          7.15
     1.645145          0.04
     1.645058          5.04
     1.640979          1.83
     1.638573          3.16
     1.632086          3.70
     1.630063          1.38
     1.628573          1.06
     1.611754          5.48
     1.607953          6.10
     1.606260          7.41
     1.604547          1.79
     1.603264          7.93
     1.600959          1.29
     1.600003          2.21
     1.597313          0.05
     1.597301          4.70
     1.596759         12.63
     1.580335          2.95
     1.576864          7.51
     1.576807          4.96
     1.576484          4.60
     1.573482          7.11
     1.573180          0.24
     1.568897         13.79
     1.568223         18.63
     1.566586          1.97
     1.566512         11.97
     1.566288          9.25
     1.564797         16.33
     1.563682          1.05
     1.558608          7.21
     1.556608         11.43
     1.556260          0.11
     1.555942          0.46
     1.555438          0.43
     1.553315          3.91
     1.551999          0.02
     1.550938          0.79
     1.549464          0.05
     1.549130         22.08
     1.538957          4.09
     1.537472          0.23
     1.536961          0.99
     1.536749         19.32
     1.532185          0.39
     1.530126         20.14
     1.529955          3.05
     1.529653          1.78
     1.529292          2.71
     1.527156          2.12
     1.525462          1.76
     1.524017          3.01
     1.523093          0.64
     1.519019          3.27
     1.517711          1.49
     1.507488          0.16
     1.506491          0.50
     1.498408          0.69
     1.496494          1.49
     1.495675          0.00
     1.494118          7.90
     1.491993          0.05
     1.491413          0.36
     1.491270          1.90
     1.477438          2.66
     1.475251          2.75
     1.474739          2.92
     1.474394          1.51
     1.473399          5.37
     1.473060          0.09
     1.472949         10.66
     1.472453          1.22
     1.472386          2.43
     1.471828          6.66
     1.470232          3.46
     1.468776          0.11
     1.468345          1.65
     1.468076          2.34
     1.467876          1.48
     1.466894         14.40
     1.465252          1.09
     1.460425          0.04
     1.460314          0.58
     1.460001          6.15
     1.458383          1.87
     1.458121          1.07
     1.456172          0.05
     1.455959          0.04
     1.438006          3.18
     1.437718          0.76
     1.436435          0.56
     1.435974          2.91
     1.430982          6.14
     1.428418          2.84
     1.427990          4.10
     1.427312          1.03
     1.412333          0.00
     1.411185          4.71
     1.410918          0.00
     1.410324          3.75
     1.409829          0.54
     1.408856          2.23
     1.406381         15.24
     1.405008          2.87
     1.404494          0.08
     1.404318          0.52
     1.403459          0.16
     1.403437          1.76
     1.403287          6.14
     1.402151          0.13
     1.392750          2.38
     1.392154          2.05
     1.391228          4.70
     1.390846          2.11
     1.390183          0.05
     1.385647          0.04
     1.385560          3.13
     1.385182          0.40
     1.383910          2.67
     1.383468          6.63
     1.382390          0.04
     1.377505          3.15
     1.377454          0.24
     1.374528          2.37
     1.373964          0.61
     1.372242          0.39
     1.372204          3.75
     1.371991          1.57
     1.369650          2.24
     1.368930          3.52
     1.367733          9.74
     1.364267          1.17
     1.363528          0.18
     1.360160          0.08
     1.358830          0.63
     1.358599          2.89
     1.358387          6.42
     1.358051          0.27
     1.357724          0.34
     1.356638          0.16
     1.351771          1.87
     1.350621          0.01
     1.348209          0.24
     1.344861          2.32
     1.341107          0.89
     1.340545          5.24
     1.336761          7.60
     1.336364          0.04
     1.335999          5.85
     1.335869          0.73
     1.335834          2.95
     1.335259          0.60
     1.334609          0.21
     1.334424          1.85
     1.333665          9.61
     1.333652          0.36
     1.331815          0.01
     1.331731          2.17
     1.331493          1.45
     1.330998          0.12
     1.330586          2.07
     1.330348          5.81
     1.330266          0.11
     1.330211          0.61
     1.327776          1.59
     1.325786          0.55
     1.325735          2.02
     1.325108          0.79
     1.319492          5.73
     1.318289          0.42
     1.316998          0.90
     1.316261          1.33
     1.314829          0.12
     1.314714          1.96
     1.314570          0.82
     1.313864          0.01
     1.312105          0.33
     1.311973          1.46
     1.310076          0.64
     1.303085          0.29
     1.300067          0.02
     1.294731          0.49
     1.294268          0.16
     1.294131          0.00
     1.293432          0.55
     1.293138          3.50
     1.292450          4.19
     1.290475          0.40
     1.289304          1.79
     1.288646          2.50
     1.288431          3.24
     1.287526          1.26
     1.287429          0.06
     1.286002          0.01
     1.285445          6.05
     1.283068          2.02
     1.282699          2.72
     1.280181          1.58
     1.278351          7.12
     1.274387          0.54
     1.272462          5.95
     1.271600          0.20
     1.271281          0.05
     1.271238          0.09
     1.270879          2.09
     1.270738          0.26
     1.270512          1.48
     1.270260          3.66
     1.268906          0.73
     1.268565          0.41
     1.268549          0.86
     1.266638          0.11
     1.259916          0.01
     1.258663          1.66
     1.258559          0.14
     1.257889          1.62
     1.254461          0.47
     1.254242          0.48
     1.253343          0.33
     1.253236          0.01
     1.252426          0.02
     1.250486          0.17
     1.250069          2.22
     1.249945          0.82
     1.249246          0.52
     1.248913          0.16
     1.248724          0.00
     1.248431          1.32
     1.248037          0.05
     1.247883          2.07
     1.247872          0.03
     1.247581          0.79
     1.246516          0.02
     1.245287          2.05
     1.245001          0.37
     1.244350          0.08
     1.243991          0.06
     1.240349          0.00
     1.239128          0.01
     1.239059          0.79
     1.238284          0.29
     1.232128          2.75
     1.230734          1.29
     1.230388          3.76
     1.228582          2.49
     1.227530          0.27
     1.217518          1.27
     1.217225          5.84
     1.216573          1.95
     1.216132          1.38
     1.215548          0.47
     1.215295          0.03
     1.214978          0.84
     1.214497          3.72
     1.213761          0.08
     1.213647          1.03
     1.213537          0.14
     1.213225          2.21
     1.213092          0.02
     1.212935          0.92
     1.211093          0.66
     1.209544          0.12
     1.208130          0.06
     1.206649          0.04
     1.205724          0.49
     1.205102          0.22
     1.204932          3.88
     1.204609          0.15
     1.204067          0.01
     1.202898          0.03
     1.201954          0.01
     1.201539          0.03
     1.201304          2.78
     1.201286          2.51
     1.201280          0.64
     1.201245          0.02
     1.200176          0.36
     1.199690          0.43
     1.199187          3.06
     1.195988          0.14
     1.195698          0.01
     1.195456          0.86
     1.191059          0.95
     1.189710          0.00
     1.189056          0.06
     1.185860          0.17
     1.185504          0.13
     1.185399          0.59
     1.184144          0.06
     1.184111          0.44
     1.184107          0.00
     1.183850          0.10
     1.183463          2.50
     1.181265          1.77
     1.181179          2.39
     1.180895          1.76
     1.180316          1.04
     1.178981          0.09
     1.177919          0.18
     1.177755          0.04
     1.176329          0.63
     1.173691          0.00
     1.173271          1.46
     1.172938          0.95
     1.172801          2.01
     1.171600          0.01
     1.171507          1.35
     1.170169          0.28
     1.170045          0.01
     1.169749          1.45
     1.169637          2.47
     1.169393          0.00
     1.169278          0.04
     1.169241          0.83
     1.168679          0.45
     1.168620          2.64
     1.167419          1.99
     1.166957          0.72
     1.165870          0.64
     1.164987          5.05
     1.164887          0.80
     1.160587          0.09
     1.158449          0.47
     1.156561          1.47
     1.156441          0.01
     1.155742          1.60
     1.155109          0.17
     1.154737          1.95
     1.154511          0.00
##############################################################################
###                            Comments                                    ###
##############################################################################
###   synthesis described in paper
###   Diffraction pattern calculated by Match!. 
###   I/Ic calculated by Match!. 
##############################################################################


