##############################################################################
###               Crystal structure data exported by Match!                ###
##############################################################################
###                           Data published by:                           ###
###                                                                        ###
###               COD (Crystallography Open Database)
##############################################################################
data_9016258
_citation_journal_full    'Journal of Mineralogical and Petrological Sciences'
_citation_journal_volume  '104'
_citation_page_first  '125'
_citation_page_last   '131'
_citation_year  '2009'
_citation_title  'Crystal structure and chemistry of conichalcite, CaCu(AsO4)(OH)'
loop_
_publ_author_name
  'Sakai S.'
  'Yoshiasa A.'
  'Sugiyama K.'
  'Miyawaki R.'
_chemical_formula_sum  'As Ca Cu0.87 H Mg0.13 O5'
_chemical_name_mineral  'Conichalcite'
_symmetry_space_group_name_H-M 'P 21 21 21'
_space_group_IT_number 19
_space_group_crystal_system 'orthorhombic'
loop_
_symmetry_equiv_pos_as_xyz
   'x, y, z'
   '-x+0.5, -y, z+0.5'
   'x+0.5, -y+0.5, -z'
   '-x, y+0.5, -z+0.5'
_cell_length_a        7.42900
_cell_length_b        5.85200
_cell_length_c        9.21500
_cell_angle_alpha    90.0000
_cell_angle_beta     90.0000
_cell_angle_gamma    90.0000
loop_
_atom_site_label
_atom_site_fract_x
_atom_site_fract_y
_atom_site_fract_z
_atom_site_occupancy
_atom_site_B_iso_or_equiv
ca      0.117   0.270   0.425    1.00000    0.971
cu      0.005   -0.001   0.749    0.87000    1.318
mg      0.005   -0.001   0.749    0.13000    1.318
as      0.368   -0.235   0.579    1.00000    1.318
o      0.190   -0.255   0.696    1.00000    1.342
o      0.538   -0.171   0.690    1.00000    1.973
o      0.387   0.515   0.488    1.00000    1.737
o      0.355   -0.008   0.467    1.00000    1.579
o      0.137   0.255   0.681    1.00000    1.579
h      0.230   0.210   0.700    1.00000    1.579
_cell_measurement_wavelength    1.541874
_cell_measurement_radiation   'x-rays'
_exptl_crystal_density_diffrn    4.219000
loop_
_pd_peak_d_spacing
_pd_peak_intensity
     5.783582        248.71
     4.940041        274.44
     4.607500          0.20
     4.597044          2.36
     4.113586        430.37
     3.915568        163.19
     3.714500        179.35
     3.620105         14.33
     3.445140        212.65
     3.254291        160.24
     3.136084       1000.00
     2.968866         14.13
     2.926000        121.24
     2.891791        226.65
     2.838596        984.58
     2.788789         11.11
     2.722447          7.05
     2.719768          3.43
     2.610888        782.25
     2.592530        414.78
     2.553992        512.91
     2.470020        158.36
     2.391488        119.99
     2.367146        105.10
     2.343864        146.73
     2.303750         30.94
     2.298522        142.25
     2.280554          1.11
     2.230191         13.79
     2.213767         20.79
     2.200380          2.87
     2.194417          1.59
     2.181254          0.08
     2.143626          0.28
     2.118620          0.13
     2.059599          0.01
     2.056793        189.79
     2.043889         27.52
     2.037390         29.52
     1.957784         62.71
     1.927861         12.45
     1.908378          8.13
     1.890244          0.10
     1.886711          0.22
     1.857250         47.68
     1.856638         57.79
     1.851688         66.32
     1.848367         66.16
     1.840320          1.72
     1.831059        192.03
     1.820640          4.71
     1.810053        195.32
     1.796313         19.50
     1.788777          3.89
     1.770236          0.35
     1.758606          4.40
     1.757884          3.49
     1.748796          5.58
     1.745997         13.54
     1.738449         15.86
     1.727010        124.24
     1.722570        226.73
     1.710645         68.48
     1.697457          2.89
     1.686713          1.32
     1.652468          0.38
     1.650955         13.86
     1.646680          0.18
     1.627146         73.80
     1.620734         27.84
     1.617143         51.01
     1.609845        429.28
     1.607661         96.02
     1.589317          0.75
     1.588933          2.89
     1.568042        177.11
     1.559438          0.01
     1.545822          2.23
     1.535833         59.74
     1.533759          6.39
     1.532348          0.48
     1.526176        209.03
     1.511591          9.77
     1.505388          1.02
     1.504029          0.02
     1.488685          5.27
     1.485525          0.04
     1.484433          6.31
     1.478474         72.18
     1.466855         52.03
     1.463000        122.16
     1.461301          5.51
     1.459667          3.13
     1.456688          1.22
     1.454043         14.44
     1.445896         39.21
     1.444904          0.69
     1.440108          0.18
     1.437864         51.31
     1.435431          1.68
     1.433434         33.42
     1.422838         17.94
     1.419298         15.14
     1.418326         26.18
     1.414093         12.10
     1.403685          1.55
     1.396593          1.49
     1.394395          0.22
     1.381839         21.81
     1.379311        100.76
     1.374532          3.45
     1.371195         53.54
     1.370463         10.93
     1.361223          6.71
     1.359884          8.36
     1.346611         17.00
     1.345087          0.02
     1.339644          4.39
     1.337658          5.40
     1.337540          0.31
     1.330982          3.98
     1.324785          0.15
     1.320835          0.20
     1.319584          3.71
     1.318380         22.68
     1.311303          4.81
     1.308207          1.83
     1.305444         26.05
     1.305189          1.18
     1.303915         44.47
     1.300441        120.31
     1.296265          0.48
     1.296235          2.10
     1.291191          5.19
     1.284333          5.93
     1.276996         21.94
     1.276695         12.96
     1.275881          8.12
     1.273890          1.83
     1.273201         19.95
     1.265560          5.37
     1.260192          0.89
     1.259600          0.01
     1.248634          0.18
     1.247995         38.71
     1.244497          6.89
     1.240809          0.49
     1.238167          9.39
     1.235010          3.67
     1.232130          1.22
     1.227139          7.09
     1.221146          0.50
     1.218290          0.04
     1.216468         87.19
     1.215015          1.76
     1.213824          0.80
     1.211350         49.26
     1.206702          0.84
     1.201017          5.37
     1.200521          0.02
     1.195744          8.85
     1.194276          3.21
     1.191979          0.60
     1.191091          0.07
     1.185146         26.59
     1.183573          3.08
     1.181976          0.94
     1.178277         16.35
     1.172371          8.42
     1.171932         24.84
     1.171537          8.82
     1.165418          1.98
     1.162388         29.46
     1.161587          7.61
     1.161073          2.69
     1.160084          0.24
     1.156716         22.78
     1.156140          0.19
     1.151875          2.48
     1.149261         12.13
     1.148437          3.86
     1.148380          0.12
     1.147661         45.33
     1.147147         11.31
     1.145860          0.01
     1.144903          2.09
     1.142340          5.19
     1.140426          0.75
     1.140277          3.07
     1.140115          5.30
     1.138274          3.23
     1.134761         12.81
     1.134374          4.35
     1.132469          3.32
     1.131646          1.02
     1.130189          0.51
     1.126887          0.64
     1.121376          1.12
     1.117333          1.42
     1.116297         23.88
     1.115096         58.13
     1.108196          0.57
     1.106884         10.82
     1.105190          0.22
     1.103124         24.45
     1.100190          6.49
     1.097208        101.88
     1.094946          3.92
     1.093696          0.35
     1.091191          2.96
     1.090627          4.81
     1.086494          6.44
     1.084910         12.06
     1.084764          0.11
     1.082033         14.55
     1.081248         22.01
     1.080267          3.08
     1.079607          3.51
     1.076387          1.28
     1.075710          0.12
     1.073999          0.58
     1.072166          5.20
     1.071813         47.13
     1.068996          1.04
     1.067869          0.07
     1.060829          1.11
     1.059310         29.55
     1.058164          0.00
     1.056356          2.73
     1.054317          0.79
     1.051638          0.16
     1.051256          7.02
     1.050522          0.20
     1.049163          0.61
     1.048702          0.06
     1.046950          0.69
     1.045361         21.46
     1.044415          0.60
     1.044252          0.55
     1.043460          2.90
     1.042465          0.06
     1.039925         32.13
     1.038699          2.27
     1.037611          2.99
     1.035858         28.60
     1.034205          0.00
     1.033317          1.38
     1.031316          3.22
     1.029799          8.51
     1.028397         19.52
     1.028168          1.74
     1.027765          0.14
     1.021944         10.71
     1.019452          5.49
     1.018695         10.13
     1.018423          7.65
     1.016765          4.12
     1.014301         27.95
     1.012272          1.20
     1.011878          0.38
     1.008568          0.06
     1.008226          0.50
##############################################################################
###                            Comments                                    ###
##############################################################################
###   Gozaisho mine, Fukushima, Japan
###   Diffraction pattern calculated by Match!. 
###   I/Ic calculated by Match!. 
###   Space group has been derived from given symmetry operations. 
##############################################################################


