##############################################################################
###               Crystal structure data exported by Match!                ###
##############################################################################
###                           Data published by:                           ###
###                                                                        ###
###               COD (Crystallography Open Database)
##############################################################################
data_4124061
_citation_journal_full    'Journal of the American Chemical Society'
_citation_journal_volume  '126'
_citation_page_first  '9769'
_citation_page_last   '9775'
_citation_year  '2004'
_citation_title  'Chemical evaluation of hypothetical uninodal zeolites'
loop_
_publ_author_name
  'Foster M.D.'
  'Friedrichs O.D.'
  'Klinowski J.'
  'Bell R.G.'
  'Paz F.A.A.'
_chemical_formula_sum  'O2 Si'
_chemical_name_common  'Silica'
_symmetry_space_group_name_H-M 'C m c a'
_space_group_IT_number 64
_space_group_crystal_system 'orthorhombic'
loop_
_symmetry_equiv_pos_as_xyz
   'x, y, z'
   'x+0.5, y+0.5, z'
   '-x, -y+0.5, z+0.5'
   '-x+0.5, -y, z+0.5'
   'x, -y, -z'
   'x+0.5, -y+0.5, -z'
   '-x, y+0.5, -z+0.5'
   '-x+0.5, y, -z+0.5'
   '-x, -y, -z'
   '-x+0.5, -y+0.5, -z'
   'x, y+0.5, -z+0.5'
   'x+0.5, y, -z+0.5'
   '-x, y, z'
   '-x+0.5, y+0.5, z'
   'x, -y+0.5, z+0.5'
   'x+0.5, -y, z+0.5'
_cell_length_a        8.89678
_cell_length_b       10.14733
_cell_length_c        8.89678
_cell_angle_alpha    90.0000
_cell_angle_beta     90.0000
_cell_angle_gamma    90.0000
_cell_formula_units_Z 16
loop_
_atom_site_label
_atom_site_fract_x
_atom_site_fract_y
_atom_site_fract_z
_atom_site_occupancy
_atom_site_B_iso_or_equiv
o      0.250   0.115   0.250    1.00000    1.000
o      0.304   0.000   0.500    1.00000    1.000
si      0.326   0.866   0.590    1.00000    1.000
o      0.500   0.169   0.386    1.00000    1.000
o      0.250   0.750   0.500    1.00000    1.000
_cell_measurement_wavelength    1.541874
_cell_measurement_radiation   'x-rays'
_exptl_crystal_density_diffrn    1.987000
loop_
_pd_peak_d_spacing
_pd_peak_intensity
     5.346803        723.09
     5.073665         37.21
     4.448390        924.53
     4.407352       1000.00
     3.704192        402.91
     3.344834          6.78
     3.145487         72.59
     3.130877        143.76
     2.979132        126.19
     2.711134        238.18
     2.673401          5.20
     2.577058         22.51
     2.560308        165.24
     2.536833         64.46
     2.439595          8.01
     2.397652         57.91
     2.224195         20.92
     2.219012          1.90
     2.203676         25.82
     2.162985         32.98
     2.139035          6.05
     2.110595         22.88
     2.053599          9.38
     2.037053         13.37
     1.993452         50.89
     1.989380         36.56
     1.985669          9.96
     1.974658         46.80
     1.931450          0.01
     1.927745         17.71
     1.852096          9.84
     1.819143          5.32
     1.807866         42.01
     1.782268          4.04
     1.768798          0.01
     1.752615         28.70
     1.719567         66.32
     1.691222          5.65
     1.679091         25.61
     1.672417         50.90
     1.661469         24.72
     1.645923          8.54
     1.643629          0.19
     1.630620         38.89
     1.580828          3.94
     1.574753         15.09
     1.572743         10.26
     1.570908         18.67
     1.567420         25.53
     1.565438         46.60
     1.556449         20.39
     1.550649         42.34
     1.508824          7.85
     1.502225          0.24
     1.489566          0.37
     1.484480          7.49
     1.482797         20.90
     1.478333          7.67
     1.469117         14.77
     1.458337          6.23
     1.456741          1.53
     1.447661          4.16
     1.423260          0.54
     1.412601         12.75
     1.406704          9.24
     1.405390          8.71
     1.395009          5.75
     1.390829         35.53
     1.384399          0.22
     1.376599          8.71
     1.362034          0.04
     1.355567          3.63
     1.346244          5.48
     1.342486          0.17
     1.340101          0.05
     1.337934         15.26
     1.336701          0.17
     1.331091          0.01
     1.323057          1.31
     1.315069          0.02
     1.288621         27.49
     1.288529          0.46
     1.285233          3.17
     1.283140         60.05
     1.281237         17.44
     1.280154         60.40
     1.268416         16.19
     1.267104          2.69
     1.255718          0.91
     1.249889          9.39
     1.248633          3.59
     1.234731          0.77
     1.233761         20.97
     1.232875         18.46
     1.230225         49.89
     1.225848         11.49
     1.219797         25.54
     1.219564         16.96
     1.218630          0.65
     1.213300          2.90
     1.208492          0.16
     1.203293          0.23
     1.198826          6.04
     1.192436          0.26
     1.188089          5.53
     1.186578          1.77
     1.181797          3.03
     1.179252         27.44
     1.176372          4.36
     1.175325          2.34
     1.166222          5.03
     1.160539          3.32
     1.151707          2.84
     1.149351          0.25
     1.146491          5.61
     1.136331          0.86
     1.132006          1.87
     1.128098          0.83
     1.123865          2.61
     1.115004         16.29
     1.114945          8.62
     1.112098          2.46
     1.111448          0.01
     1.110211          0.12
     1.109798          0.02
     1.109506         12.75
     1.106291          1.83
     1.104203         11.87
     1.101838          0.08
     1.100977          0.29
     1.097042          4.12
     1.093484          0.08
     1.089628          0.10
     1.086308          1.29
     1.084768          2.72
     1.081492          2.62
     1.079541          0.18
     1.078893          2.81
     1.078300          0.41
     1.073589          0.15
     1.069518          0.20
     1.069361          4.66
     1.055298          2.46
     1.050930          7.06
     1.049090          1.34
     1.048496          7.32
     1.046914          1.81
     1.046568          5.63
     1.043626         19.62
     1.039161          0.02
     1.035850          6.90
     1.032853          0.10
     1.029602          0.20
     1.028899          2.15
     1.026800          3.07
     1.025498         12.61
     1.020029         10.57
     1.018527          2.65
     1.016038          5.96
     1.014733          0.90
     1.012452          3.76
     1.011917          0.07
     1.008196          1.97
##############################################################################
###                            Comments                                    ###
##############################################################################
###   Diffraction pattern calculated by Match!. 
###   I/Ic calculated by Match!. 
###   Space group has been derived from given symmetry operations. 
##############################################################################


