##############################################################################
###               Crystal structure data exported by Match!                ###
##############################################################################
###                           Data published by:                           ###
###                                                                        ###
###               COD (Crystallography Open Database)
##############################################################################
data_9012701
_citation_journal_full    'Journal of Solid State Chemistry'
_citation_journal_volume  '57'
_citation_page_first  '343'
_citation_page_last   '350'
_citation_year  '1985'
_citation_title  'Monoxyde quadratique PbO alpha(I): Description de la transition structuraleferroelastique Method: X-ray Diffraction'
loop_
_publ_author_name
  'Boher P.'
  'Garnier P.'
  'Gavarri J. R.'
  'Hewat A. W.'
_chemical_formula_sum  'O Pb'
_chemical_name_mineral  'Litharge'
_symmetry_space_group_name_H-M 'P 4/n m m'
_space_group_IT_number 129
_space_group_crystal_system 'tetragonal'
loop_
_symmetry_equiv_pos_as_xyz
   'x, y, z'
   '-x+0.5, -y+0.5, -z'
   '-y+0.5, x+0.5, z'
   '-x, -y, z'
   'y+0.5, -x+0.5, z'
   'y, -x, -z'
   '-y, x, -z'
   'x+0.5, -y+0.5, -z'
   '-x+0.5, y+0.5, -z'
   'y, x, -z'
   '-y, -x, -z'
   'x+0.5, y+0.5, -z'
   '-x, y, z'
   'x, -y, z'
   '-y+0.5, -x+0.5, z'
   'y+0.5, x+0.5, z'
_cell_length_a        3.97440
_cell_length_b        3.97440
_cell_length_c        5.02190
_cell_angle_alpha    90.0000
_cell_angle_beta     90.0000
_cell_angle_gamma    90.0000
loop_
_atom_site_label
_atom_site_fract_x
_atom_site_fract_y
_atom_site_fract_z
_atom_site_occupancy
_atom_site_B_iso_or_equiv
pb      0.000   0.500   0.236    1.00000    1.200
o      0.000   0.000   0.000    1.00000    0.799
_cell_measurement_wavelength    1.541874
_cell_measurement_radiation   'x-rays'
_cell_measurement_temperature    295.000000
_exptl_crystal_density_diffrn    9.345000
loop_
_pd_peak_d_spacing
_pd_peak_intensity
     5.021900         27.75
     3.116496       1000.00
     2.810325        318.26
     2.510950        112.04
     2.452429          0.04
     2.122787         10.72
     1.987200        154.51
     1.872439        244.74
     1.847792          5.55
     1.675555        294.87
     1.673967          1.47
     1.558248         95.90
     1.542713        101.85
     1.450729          5.63
     1.438168          9.23
     1.405163         43.41
     1.353189          1.53
     1.280976         53.41
     1.280266          2.34
     1.256816         44.38
     1.255475         12.32
     1.226215         39.12
     1.219214          0.10
     1.218601         82.78
     1.197165          5.24
     1.171715          1.25
     1.146290         27.69
     1.123890         72.34
     1.076669         58.12
     1.076247          1.34
     1.061393         27.53
     1.038832         24.67
     1.025456          6.46
     1.009325          1.61
##############################################################################
###                            Comments                                    ###
##############################################################################
###   Diffraction pattern calculated by Match!. 
###   I/Ic calculated by Match!. 
###   Space group has been derived from given symmetry operations. 
##############################################################################


