##############################################################################
###               Crystal structure data exported by Match!                ###
##############################################################################
###                           Data published by:                           ###
###                                                                        ###
###               COD (Crystallography Open Database)
##############################################################################
data_9013443
_citation_journal_full    'Journal of Solid State Chemistry'
_citation_journal_volume  '23'
_citation_page_first  '327'
_citation_page_last   '339'
_citation_year  '1978'
_citation_title  'Oxydes de plomb. IV. Evolution structurale de l'oxyde Pb3O4 entre 240 et 5 K et mecanisme de la transition Locality: synthetic Sample: T = 200 K'
loop_
_publ_author_name
  'Gavarri J. R.'
  'Weigel D.'
  'Hewat A. W.'
_chemical_formula_sum  'O4 Pb3'
_chemical_name_mineral  'Minium'
_symmetry_space_group_name_H-M 'P b a m'
_space_group_IT_number 55
_space_group_crystal_system 'orthorhombic'
loop_
_symmetry_equiv_pos_as_xyz
   'x, y, z'
   '-x, -y, z'
   'x+0.5, -y+0.5, -z'
   '-x+0.5, y+0.5, -z'
   '-x, -y, -z'
   'x, y, -z'
   '-x+0.5, y+0.5, z'
   'x+0.5, -y+0.5, z'
_cell_length_a        8.81790
_cell_length_b        8.80320
_cell_length_c        6.56200
_cell_angle_alpha    90.0000
_cell_angle_beta     90.0000
_cell_angle_gamma    90.0000
loop_
_atom_site_label
_atom_site_fract_x
_atom_site_fract_y
_atom_site_fract_z
_atom_site_occupancy
_atom_site_B_iso_or_equiv
pb      0.000   0.500   0.246    1.00000    1.000
pb      0.142   0.161   0.000    1.00000    1.000
pb      0.163   0.856   0.500    1.00000    1.000
o      0.672   0.172   0.242    1.00000    1.000
o      0.094   0.637   0.000    1.00000    1.000
o      0.134   0.596   0.500    1.00000    1.000
_cell_measurement_wavelength    1.541874
_cell_measurement_radiation   'x-rays'
_cell_measurement_temperature    200.000000
_exptl_crystal_density_diffrn    8.939000
loop_
_pd_peak_d_spacing
_pd_peak_intensity
     6.562000          0.53
     6.229993        222.17
     4.518084          0.13
     4.408950         13.06
     4.401600         11.70
     3.942167          7.17
     3.938223          7.31
     3.659620         26.18
     3.655413         13.98
     3.379251       1000.00
     3.376766        980.75
     3.281000        100.36
     3.114996        271.41
     2.903022        736.25
     2.814031          0.01
     2.787999        487.42
     2.784280        487.91
     2.632150        266.73
     2.630583        270.40
     2.566001          1.33
     2.563101          3.30
     2.521836          1.55
     2.520802          1.48
     2.444389         20.16
     2.442821         14.01
     2.290625         37.18
     2.289334         36.76
     2.259042        102.20
     2.204475         14.78
     2.200800         15.35
     2.187333          0.26
     2.138445          1.20
     2.135299          0.30
     2.124558          1.13
     2.122911          1.25
     2.089705          4.94
     2.086574          4.30
     2.076664         20.90
     2.063826          0.77
     2.033205        111.19
     2.030501        111.71
     1.979885          0.22
     1.971084        110.31
     1.969111        109.45
     1.960193         17.37
     1.959448          2.44
     1.959384         11.67
     1.958802          3.91
     1.912641        187.30
     1.912190        195.08
     1.887759          8.23
     1.886026          6.65
     1.829810        232.67
     1.827707        234.58
     1.791518          9.68
     1.790086          0.57
     1.789667          6.38
     1.762520          2.83
     1.761697          3.51
     1.754720        523.87
     1.729221         21.67
     1.726560         21.25
     1.720911          1.59
     1.720035          0.19
     1.702188          9.81
     1.701447         10.46
     1.689626         13.86
     1.688383         13.98
     1.672137          8.04
     1.669730          3.73
     1.640500        129.88
     1.637066          0.10
     1.635089          0.16
     1.630009         11.77
     1.629544         11.84
     1.588382        124.29
     1.586577        130.23
     1.586421          8.45
     1.557498         96.06
     1.552703          2.94
     1.552671          3.05
     1.552108          3.86
     1.551417          0.81
     1.537517          1.44
     1.537205          1.33
     1.529762         56.16
     1.529100         39.45
     1.527949         43.12
     1.527919         56.53
     1.515398          0.18
     1.514590          0.75
     1.514366          0.76
     1.511589         21.78
     1.510402         22.07
     1.506028          0.16
     1.473012         10.30
     1.471914          7.21
     1.469650         58.40
     1.467200         60.84
     1.464849          0.29
     1.464268          1.58
     1.463459          4.68
     1.463432          0.19
     1.451511         47.32
     1.449588          4.06
     1.447302          2.65
     1.434122          3.00
     1.431846          2.73
     1.415463         18.26
     1.413892        111.54
     1.413406        112.08
     1.413334         18.56
     1.407015          0.50
     1.393999          2.78
     1.392140          2.62
     1.376227          0.63
     1.375723          1.14
     1.372894         14.56
     1.372416          4.40
     1.372027          4.58
     1.372005         14.15
     1.363571          0.00
     1.362167          4.76
     1.361895          3.22
     1.361830          0.37
     1.356518          2.13
     1.355232          3.28
     1.346924         34.87
     1.346451         35.75
     1.341244          2.25
     1.339381          2.93
     1.325942          6.87
     1.324192          4.67
     1.316075          4.27
     1.315292          4.46
     1.314056          0.01
     1.312741          0.12
     1.312400          0.11
     1.310640         62.53
     1.309625         63.29
     1.301610          0.70
     1.300899          0.26
     1.288475          0.61
     1.287290          9.02
     1.287236          0.61
     1.284215          0.22
     1.283001         39.82
     1.281551         40.38
     1.269104          2.82
     1.268727          0.01
     1.268709          4.04
     1.260918         44.15
     1.260401         43.92
     1.257856          1.31
     1.257685          0.16
     1.246998          0.13
     1.245999         13.94
     1.245209         41.96
     1.245084         39.81
     1.245002          0.07
     1.243539          7.18
     1.242879          2.76
     1.225074          0.54
     1.224126          0.02
     1.223181          0.47
     1.222194          0.51
     1.221410          0.66
     1.219873          2.50
     1.219858          0.02
     1.218806          0.18
     1.218471          0.78
     1.211079          7.18
     1.209440          0.17
     1.209365          5.17
     1.208327         10.22
     1.207002         10.22
     1.201531          5.58
     1.200831          1.39
     1.200786          4.82
     1.200570          1.71
     1.190965          7.10
     1.190138         11.10
     1.189335          7.94
     1.189269         10.90
     1.187418          0.00
     1.187131          0.75
     1.175562          0.10
     1.174446          0.03
     1.165647         50.93
     1.164845         21.02
     1.164831          9.72
     1.164539         20.48
     1.164017         52.35
     1.158792          0.04
     1.158091          0.07
     1.157547         44.40
     1.156282          3.33
     1.156216         45.79
     1.156115          3.24
     1.145312         62.24
     1.144667         64.08
     1.139947          3.01
     1.138675          1.97
     1.136150          7.79
     1.134734          5.19
     1.129521         58.37
     1.128244          2.26
     1.127904          1.36
     1.127688          0.31
     1.127195          0.85
     1.126417          0.37
     1.125589          0.37
     1.118548         13.44
     1.118097         12.80
     1.111928          8.89
     1.111638         14.40
     1.111603          8.75
     1.111166         14.64
     1.109421          0.30
     1.102237          4.91
     1.100400          4.91
     1.094635         40.22
     1.093698          0.00
     1.093667          2.94
     1.093622         42.02
     1.093276          1.35
     1.092406          1.88
     1.092351          0.67
     1.092070          0.39
     1.091931          0.01
     1.091603          4.18
     1.090486          4.79
     1.087009          5.41
     1.086270          3.07
     1.085307          2.04
     1.085247          3.33
     1.083317          0.80
     1.082662          0.05
     1.082008          0.06
     1.078816         22.45
     1.078411          0.96
     1.077523          1.17
     1.077194         28.45
     1.077120         24.77
     1.069222          3.83
     1.067649          3.80
     1.066935          2.80
     1.066925          4.25
     1.066638          2.64
     1.066414          4.31
     1.062279          2.23
     1.061496         13.44
     1.061455          2.11
     1.061393         13.61
     1.059517          5.20
     1.058368          5.33
     1.055305          1.38
     1.054351          0.61
     1.054124          1.05
     1.053862          0.00
     1.053793          1.33
     1.053787          0.00
     1.052634          1.71
     1.052459          1.84
     1.045410          2.45
     1.044853          1.61
     1.044821          0.32
     1.043287          1.59
     1.038332         26.25
     1.037570          0.20
     1.037210          0.97
     1.036419          0.28
     1.036061          0.08
     1.031913          6.66
     1.031845          0.49
     1.030548          0.75
     1.025600          0.01
     1.025572          0.03
     1.024975          0.09
     1.024482          2.74
     1.023973         27.74
     1.023928          2.76
     1.023489         29.88
     1.023114          1.50
     1.022194          2.16
     1.019320          2.49
     1.018133          0.10
     1.018070          2.85
     1.017951          0.11
     1.016603         14.50
     1.015250         14.51
     1.012220          1.39
     1.011685          2.81
##############################################################################
###                            Comments                                    ###
##############################################################################
###   Diffraction pattern calculated by Match!. 
###   I/Ic calculated by Match!. 
##############################################################################


