##############################################################################
###               Crystal structure data exported by Match!                ###
##############################################################################
###                           Data published by:                           ###
###                                                                        ###
###               COD (Crystallography Open Database)
##############################################################################
data_8103580
_citation_journal_full    'Zeitschrift fuer Kristallographie (149,1979-)'
_citation_journal_volume  '153'
_citation_page_first  '141'
_citation_page_last   '149'
_citation_year  '1980'
_citation_title  'The cation distribution in two (Co, Mg)3 (P O4)2 solid solutions'
loop_
_publ_author_name
  'Nord A.G.'
  'Stetanidis T.'
_chemical_formula_sum  'Co2 Mg O8 P2'
_chemical_name_common  'Co2 Mg (P O4)2'
_symmetry_space_group_name_H-M 'P 1 21/n 1'
_space_group_IT_number 14
_space_group_crystal_system 'monoclinic'
loop_
_symmetry_equiv_pos_as_xyz
   'x, y, z'
   '-x+0.5, y+0.5, -z+0.5'
   '-x, -y, -z'
   'x+0.5, -y+0.5, z+0.5'
_cell_length_a        7.58100
_cell_length_b        8.32000
_cell_length_c        5.07200
_cell_angle_alpha    90.0000
_cell_angle_beta     94.1800
_cell_angle_gamma    90.0000
_cell_formula_units_Z 2
loop_
_atom_site_label
_atom_site_fract_x
_atom_site_fract_y
_atom_site_fract_z
_atom_site_occupancy
_atom_site_B_iso_or_equiv
co      0.615   0.138   0.093    0.73990    1.000
o      0.046   0.139   0.835    1.00000    1.000
o      0.267   0.360   0.956    1.00000    1.000
co      0.000   0.000   0.500    0.52000    1.000
mg      0.615   0.138   0.093    0.26000    1.000
mg      0.000   0.000   0.500    0.47990    1.000
o      0.119   0.201   0.324    1.00000    1.000
p      0.199   0.194   0.050    1.00000    1.000
o      0.360   0.079   0.039    1.00000    1.000
_cell_measurement_wavelength    1.541874
_cell_measurement_radiation   'x-rays'
_exptl_crystal_density_diffrn    3.455000
loop_
_pd_peak_d_spacing
_pd_peak_intensity
     5.595502         30.98
     4.353537        674.26
     4.322317        217.28
     4.160000         81.50
     4.069465        404.67
     3.857369        353.88
     3.780417          0.19
     3.655613          9.59
     3.644744         17.67
     3.441783       1000.00
     3.213046        232.07
     3.007657        173.24
     2.937691          0.13
     2.909027         37.99
     2.797751        160.98
     2.761622        102.13
     2.603703         42.41
     2.529254        254.36
     2.506171        308.20
     2.431832        372.25
     2.419908         53.13
     2.412043        150.83
     2.394158         52.56
     2.352869          5.03
     2.339048         35.48
     2.324444          7.32
     2.291745         64.76
     2.259448          6.70
     2.238716         98.56
     2.236140          1.17
     2.192906         23.04
     2.176768          5.97
     2.161159         10.73
     2.155551          9.61
     2.120488        170.97
     2.113005        102.14
     2.105887         20.73
     2.080000         61.61
     2.078629        154.92
     2.044562        167.30
     2.034733         51.39
     2.029163          1.25
     2.013372          2.68
     2.005495          5.32
     1.976485          0.53
     1.939883          2.19
     1.928684         31.51
     1.923720         20.71
     1.890209         13.43
     1.876796         39.07
     1.868797         12.31
     1.865167         15.23
     1.852095         13.82
     1.843238          0.27
     1.837399         84.41
     1.827806         64.70
     1.822372          6.63
     1.809729          3.27
     1.791862         12.44
     1.781468          9.92
     1.772856        108.12
     1.734044         55.92
     1.720892         13.83
     1.720138          2.71
     1.712316          4.71
     1.695613         19.00
     1.693558         74.44
     1.693527         32.14
     1.687727         98.04
     1.671833         13.50
     1.663196         23.95
     1.652573         11.07
     1.640549          0.01
     1.639070         75.67
     1.625109         61.00
     1.620833          0.20
     1.606523          0.56
     1.604216          5.60
     1.597198         26.02
     1.592304          0.08
     1.590925          2.04
     1.586445          3.08
     1.580675         10.31
     1.569967          0.14
     1.562681        104.29
     1.561926         17.48
     1.556856          3.20
     1.555550          0.14
     1.554332          3.56
     1.551249         26.01
     1.550024         14.63
     1.542741          2.86
     1.541379        138.08
     1.540214         25.91
     1.522993         56.02
     1.518405          4.09
     1.510249         13.33
     1.509119        107.93
     1.503829          0.62
     1.487793         58.99
     1.479888          1.11
     1.478696          8.38
     1.476013         42.10
     1.470297         18.62
     1.468846          5.88
     1.467690          0.01
     1.463890         10.60
     1.463800          6.13
     1.455881          0.35
     1.454514         60.15
     1.451179         48.52
     1.446650         44.61
     1.441658         27.77
     1.440772          4.36
     1.431798          8.05
     1.429596          1.40
     1.421186          0.97
     1.420679         18.82
     1.410907          6.70
     1.400410         19.79
     1.399370          7.95
     1.398876         30.42
     1.393293         21.22
     1.390130          7.00
     1.388634          9.76
     1.386667         20.90
     1.384058          4.33
     1.380811          0.88
     1.377060         26.47
     1.375114         33.66
     1.370202          4.31
     1.367353          1.82
     1.366242         34.13
     1.363918         47.01
     1.357575          3.59
     1.356488          0.02
     1.353038         21.89
     1.344441         25.69
     1.338811          0.01
     1.337330          0.01
     1.329967         15.15
     1.327637         14.38
     1.327137          9.37
     1.325573         13.83
     1.324565         25.71
     1.321984          3.82
     1.321263          7.59
     1.319246         16.19
     1.312558          1.82
     1.309839          8.84
     1.304813          0.73
     1.303085          7.15
     1.301851          1.34
     1.294544          4.22
     1.290658          5.95
     1.289657          2.22
     1.288107          4.03
     1.285790          6.53
     1.278497         17.81
     1.276909         31.08
     1.268477          8.73
     1.264627          0.01
     1.264431          2.64
     1.260139          0.10
     1.259920         13.46
     1.253198          6.92
     1.253085          8.95
     1.250267         31.84
     1.248985          2.22
     1.248077         11.92
     1.246449          1.68
     1.245929          0.86
     1.243986         11.06
     1.238404          0.12
     1.230543          9.31
     1.226501         10.78
     1.226395          0.62
     1.223101          0.68
     1.219452          2.20
     1.218538          4.71
     1.216530          0.18
     1.215916          6.48
     1.214915          1.14
     1.213387          4.16
     1.209954          3.92
     1.207969          7.83
     1.207767          9.70
     1.207141          0.00
     1.206021          3.24
     1.205185         12.74
     1.204258          9.75
     1.202299          7.42
     1.199204          3.66
     1.197128          0.03
     1.197079         10.49
     1.193951         30.65
     1.192050          0.77
     1.190861          9.68
     1.190147          0.28
     1.190022          0.16
     1.184386          0.63
     1.181960          0.70
     1.181896          0.21
     1.179385          7.38
     1.176435          0.17
     1.174152          0.43
     1.173838         10.71
     1.173148         10.73
     1.172007          0.82
     1.169524          5.73
     1.168917          0.65
     1.166321         19.70
     1.162326          5.95
     1.162222          0.05
     1.161063          2.00
     1.157549         30.84
     1.157061          0.54
     1.155103          0.16
     1.153606          0.66
     1.151046          0.34
     1.150645          0.22
     1.148937          1.55
     1.147261          1.69
     1.147096          4.31
     1.146608          0.29
     1.145872          2.12
     1.145743          0.16
     1.141931          8.58
     1.140905          5.29
     1.136217          9.49
     1.135214          0.30
     1.133852          0.78
     1.129724         17.83
     1.127471          2.84
     1.126489          2.38
     1.125335          3.91
     1.121712          0.36
     1.121703          9.64
     1.119358          0.33
     1.119100          1.80
     1.118070          1.43
     1.114061          4.69
     1.112926          2.16
     1.111597          3.18
     1.110461          1.40
     1.106337          3.01
     1.105328          0.75
     1.103167         12.81
     1.101777         10.36
     1.101272          0.13
     1.099065          9.75
     1.096453          3.26
     1.093692          3.00
     1.089210          2.92
     1.088384          4.19
     1.087075          1.75
     1.087054          0.52
     1.081935          1.18
     1.080995          0.15
     1.080579         10.32
     1.080457         14.64
     1.080410          3.85
     1.079190          1.46
     1.079165          0.31
     1.077913          7.79
     1.077775          8.19
     1.077149          1.74
     1.076516          7.38
     1.075714          0.00
     1.075021         15.33
     1.073970         25.88
     1.072391          4.72
     1.071903          0.82
     1.071131          0.78
     1.071015          2.99
     1.069624          2.89
     1.067769          1.39
     1.067313          2.56
     1.063592         11.74
     1.062244          6.20
     1.060499          2.01
     1.060415          6.78
     1.060244          2.86
     1.058249          0.03
     1.056503          0.04
     1.053676          0.00
     1.052943          2.60
     1.051758          1.05
     1.051400          0.01
     1.049159          1.52
     1.045454         16.46
     1.044952          1.63
     1.044458          6.56
     1.043204          7.33
     1.043191          1.37
     1.040972          0.50
     1.040927         11.49
     1.040000          1.57
     1.039315          1.12
     1.038460          2.33
     1.038442          0.13
     1.032874          5.05
     1.030299          6.91
     1.027590          8.69
     1.026302          0.05
     1.022281         12.74
     1.022014          2.82
     1.021434          0.46
     1.019656          2.68
     1.019026          1.30
     1.018693          0.00
     1.018171          0.64
     1.017366          6.99
     1.016333          2.29
     1.015012          2.35
     1.014581         21.61
     1.013157          2.38
     1.012971          1.57
     1.012513          1.32
     1.012101          0.07
     1.011538         18.57
     1.011492          0.18
     1.009845          8.84
     1.009794          0.06
     1.007616          0.27
     1.006852          3.13
     1.006686          5.42
     1.006480         11.83
##############################################################################
###                            Comments                                    ###
##############################################################################
###   Diffraction pattern calculated by Match!. 
###   I/Ic calculated by Match!. 
##############################################################################


