##############################################################################
###               Crystal structure data exported by Match!                ###
##############################################################################
###                           Data published by:                           ###
###                                                                        ###
###               COD (Crystallography Open Database)
##############################################################################
data_9014547
_citation_journal_full    'Mineralogiceskij Zhurnal'
_citation_journal_volume  '8'
_citation_page_first  '32'
_citation_page_last   '40'
_citation_year  '1986'
_citation_title  'Refining the crystallographic structure of celadonite'
loop_
_publ_author_name
  'Tsipurskij S. I.'
  'Drits V. A.'
_chemical_formula_sum  'Fe1.22 H2 K Mg0.78 O12 Si4'
_chemical_name_mineral  'Celadonite'
_symmetry_space_group_name_H-M 'C 1 2 1'
_space_group_IT_number 5
_space_group_crystal_system 'monoclinic'
loop_
_symmetry_equiv_pos_as_xyz
   'x, y, z'
   'x+0.5, y+0.5, z'
   '-x, y, -z'
   '-x+0.5, y+0.5, -z'
_cell_length_a        5.22300
_cell_length_b        9.04700
_cell_length_c       10.19700
_cell_angle_alpha    90.0000
_cell_angle_beta    100.4300
_cell_angle_gamma    90.0000
loop_
_atom_site_label
_atom_site_fract_x
_atom_site_fract_y
_atom_site_fract_z
_atom_site_occupancy
_atom_site_B_iso_or_equiv
k      0.500   0.000   0.500    1.00000    3.958
fe      0.500   0.166   0.000    0.87000    2.831
mg      0.500   0.166   0.000    0.13000    2.831
mg      0.500   0.832   0.000    0.65000    2.687
fe      0.500   0.832   0.000    0.35000    2.687
si      0.414   0.333   0.273    1.00000    4.029
si      0.413   0.668   0.273    1.00000    3.692
o      0.187   0.251   0.333    1.00000    4.287
o      0.443   0.501   0.331    1.00000    4.105
o      0.689   0.255   0.334    1.00000    4.379
o      0.396   0.002   0.113    1.00000    4.453
o      0.378   0.332   0.113    1.00000    4.429
o      0.856   0.179   0.114    1.00000    4.300
h      0.247   0.002   0.093    1.00000    1.000
_cell_measurement_wavelength    1.541874
_cell_measurement_radiation   'x-rays'
_exptl_crystal_density_diffrn    3.031000
loop_
_pd_peak_d_spacing
_pd_peak_intensity
    10.028513       1000.00
     5.014256         15.58
     4.523500        390.90
     4.466909         26.89
     4.342425        384.25
     4.123434        231.00
     3.860776         11.08
     3.631380        748.12
     3.358735        155.14
     3.342838        353.06
     3.101656        749.78
     2.904717        128.83
     2.688406        323.96
     2.603925         49.71
     2.600615         93.64
     2.575357        417.41
     2.568350        185.14
     2.507128         48.32
     2.494612          5.29
     2.474946          0.38
     2.463093          1.49
     2.400252        370.28
     2.386385        202.79
     2.349892         62.54
     2.261750          8.92
     2.256731        109.99
     2.242160         22.23
     2.233455         14.40
     2.226685         33.09
     2.206334        105.34
     2.192843         13.37
     2.171212          8.28
     2.150353        185.05
     2.134508        103.09
     2.110678         79.03
     2.061717          1.39
     2.052722          7.20
     2.008917         37.83
     2.005703         56.64
     1.982395         43.13
     1.967095        115.93
     1.947892         20.29
     1.930388         16.64
     1.893763         18.00
     1.878923          3.58
     1.873261          3.57
     1.833547          6.34
     1.815690         32.46
     1.741062          0.98
     1.735188          0.80
     1.730734          5.46
     1.727569          0.66
     1.709541         25.26
     1.707551          0.29
     1.706617          1.38
     1.699419         14.34
     1.697401          6.51
     1.688108          5.75
     1.682368         19.94
     1.679368         28.49
     1.671419         13.64
     1.669592          1.22
     1.665939          1.11
     1.663674        167.82
     1.653172          9.95
     1.650880         70.68
     1.646086         45.56
     1.641592         37.20
     1.624862          1.97
     1.623190          7.72
     1.613027          5.36
     1.592327         52.98
     1.586756         44.88
     1.567816          0.33
     1.558423          5.19
     1.552360          5.50
     1.550828          5.23
     1.533551         42.08
     1.528438         28.28
     1.522187         61.84
     1.515749         26.49
     1.507833         64.36
     1.507709        119.80
     1.500642         13.99
     1.492945         11.39
     1.491074         18.32
     1.490805          0.52
     1.490307         18.23
     1.488970         23.29
     1.484265          0.51
     1.468615          8.29
     1.457930          5.92
     1.452358          0.61
     1.451992          7.73
     1.447475          5.10
     1.445271          5.47
     1.443960          2.86
     1.440254          1.75
     1.432645         11.22
     1.431299          0.75
     1.419242          1.73
     1.405723          3.64
     1.387638         30.24
     1.379638          2.08
     1.379078          5.37
     1.374478          2.68
     1.372895          1.16
     1.369737          0.67
     1.365783         13.35
     1.360306         26.71
     1.350875         53.48
     1.344203          5.66
     1.340165          4.68
     1.333450          4.08
     1.307717          0.86
     1.306463          1.92
     1.305729          0.26
     1.304854         14.72
     1.303859          5.14
     1.302678         26.49
     1.301963         23.95
     1.300308         36.82
     1.297611          0.75
     1.297274         18.13
     1.294509          0.99
     1.292147         20.48
     1.287678          2.86
     1.286925         23.05
     1.284175          0.09
     1.278761          7.35
     1.274701         26.61
     1.269291          1.31
     1.262825          1.43
     1.259628          6.07
     1.254522          6.18
     1.253564         10.72
     1.253365          0.56
     1.252852          0.87
     1.251219         16.20
     1.251169          5.22
     1.250505          2.85
     1.247306          4.29
     1.245978          1.47
     1.245680          8.52
     1.243664          4.93
     1.237473          0.17
     1.236983          0.08
     1.235359          0.46
     1.231730          2.20
     1.231546          1.40
     1.230536          8.10
     1.228790          6.42
     1.225406          4.03
     1.219178          1.36
     1.216706          1.88
     1.214854          1.00
     1.210460          1.86
     1.210276         11.70
     1.208882          6.06
     1.208035          0.70
     1.205240          1.45
     1.203511         11.87
     1.201312          0.35
     1.200974          8.28
     1.200126          0.97
     1.199962          0.33
     1.193615          0.76
     1.193192          2.42
     1.191007          1.54
     1.189027          0.11
     1.183123          3.91
     1.177461          6.21
     1.175985          3.23
     1.174946          0.55
     1.172021          0.10
     1.171630          5.83
     1.165712          3.88
     1.164670          0.00
     1.160352          1.24
     1.159760          5.81
     1.156906          0.07
     1.153730          0.05
     1.144620          2.71
     1.141426          1.45
     1.139805          0.01
     1.132116          0.01
     1.131291          0.45
     1.130875          0.15
     1.129600          3.68
     1.128365          0.31
     1.127885          1.08
     1.125529          0.14
     1.125310          0.49
     1.124611          0.34
     1.123753          3.76
     1.123482          1.03
     1.121080         10.95
     1.119578          0.14
     1.118535          1.10
     1.116727          0.10
     1.114513          0.04
     1.114279          0.90
     1.113343         19.51
     1.113161          3.95
     1.103649          5.15
     1.103167          0.05
     1.101782          0.18
     1.098243          0.10
     1.097323          0.08
     1.096422          1.21
     1.092532          3.03
     1.091134          1.51
     1.090795          0.65
     1.088160          0.86
     1.085606          0.17
     1.084649          0.97
     1.081937          0.66
     1.075177         16.97
     1.071504          0.07
     1.071236          0.67
     1.067254          6.04
     1.067230          0.24
     1.066395          0.02
     1.066149          0.05
     1.060014          0.27
     1.059997         10.99
     1.055968          0.00
     1.055339          1.18
     1.053846          5.73
     1.048353          0.08
     1.048111          0.22
     1.043291          7.13
     1.043267          0.33
     1.042407          0.27
     1.040606          1.92
     1.038735          0.23
     1.038597          6.76
     1.037722          1.34
     1.037405          0.00
     1.037276          0.09
     1.035450          1.46
     1.034988          0.50
     1.034451          0.19
     1.033885          5.90
     1.032870          0.49
     1.031551          1.10
     1.030858          1.50
     1.029364          0.09
     1.028585          0.09
     1.028321          0.59
     1.026361          2.74
     1.024710          1.11
     1.021935          3.54
     1.020780          3.00
     1.017449          0.41
     1.015901          0.17
     1.014932          0.29
     1.013180          1.18
     1.012373          0.07
     1.011071          4.44
     1.010022          4.45
     1.009715          3.93
     1.006996          0.11
##############################################################################
###                            Comments                                    ###
##############################################################################
###   Diffraction pattern calculated by Match!. 
###   I/Ic calculated by Match!. 
###   Space group has been derived from given symmetry operations. 
##############################################################################


