##############################################################################
###               Crystal structure data exported by Match!                ###
##############################################################################
###                           Data published by:                           ###
###                                                                        ###
###               COD (Crystallography Open Database)
##############################################################################
data_1000442
_citation_journal_full    'Journal of Materials Chemistry'
_citation_journal_volume  '7(6)'
_citation_page_first  '1049'
_citation_page_last   '1056'
_citation_year  '1997'
_citation_title  'Crystal structure of \k-alumina: an X-ray powder diffraction, TEMand NMR study'
loop_
_publ_author_name
  'Ollivier Benoist'
  'Retoux Richard'
  'Lacorre Philippe'
  'Massiot Dominique'
  'F?rey G?rard'
_chemical_formula_sum  'Al2 O3'
_chemical_name_common  'Aluminium oxide - \k'
_symmetry_space_group_name_H-M 'P n a 21'
_space_group_IT_number 33
_space_group_crystal_system 'orthorhombic'
loop_
_symmetry_equiv_pos_as_xyz
   'x, y, z'
   '-x, -y, z+0.5'
   '-x+0.5, y+0.5, z+0.5'
   'x+0.5, -y+0.5, z'
_cell_length_a        4.84370
_cell_length_b        8.33000
_cell_length_c        8.95470
_cell_angle_alpha    90.0000
_cell_angle_beta     90.0000
_cell_angle_gamma    90.0000
_cell_formula_units_Z 8
loop_
_atom_site_label
_atom_site_fract_x
_atom_site_fract_y
_atom_site_fract_z
_atom_site_occupancy
_atom_site_B_iso_or_equiv
al      0.679   0.842   0.000    1.00000    1.000
al      0.185   0.343   0.787    1.00000    1.000
al      0.811   0.649   0.697    1.00000    1.000
al      0.668   0.470   0.999    1.00000    1.000
o      0.329   0.831   0.893    1.00000    1.000
o      0.025   0.491   0.629    1.00000    1.000
o      0.472   0.665   0.638    1.00000    1.000
o      0.514   0.673   0.121    1.00000    1.000
o      0.861   0.330   0.866    1.00000    1.000
o      0.336   0.499   0.900    1.00000    1.000
_cell_measurement_wavelength    1.541874
_cell_measurement_radiation   'x-rays'
_exptl_crystal_density_diffrn    3.748000
loop_
_pd_peak_d_spacing
_pd_peak_intensity
     6.099100        112.41
     4.477350         54.87
     4.187266         17.20
     4.165000          9.14
     3.793064         11.11
     3.158029         57.81
     3.058257        141.01
     3.049550        221.50
     2.978247         50.22
     2.809946        504.09
     2.652094         27.21
     2.580674       1000.00
     2.430560        109.98
     2.421850         79.13
     2.408926         42.80
     2.337856        127.38
     2.326224        198.14
     2.325555         29.26
     2.250888          5.02
     2.238675         26.53
     2.169267        121.18
     2.130187        224.97
     2.121376        622.10
     2.093633          1.26
     2.082500         39.39
     2.063775        159.48
     2.038654          5.72
     2.033033          0.14
     1.974230          2.59
     1.971882          7.43
     1.913170         38.39
     1.896532         28.45
     1.888245         68.24
     1.880674        110.91
     1.874603        168.74
     1.870946          7.65
     1.834500         89.09
     1.826339         18.62
     1.825145         15.85
     1.788376          5.01
     1.759290         40.71
     1.750929         44.36
     1.714036         36.22
     1.690115          0.57
     1.646646         17.41
     1.643930        129.25
     1.639870        131.81
     1.637894         25.93
     1.612822          4.89
     1.610714         13.34
     1.585067          5.18
     1.579014         18.30
     1.575416          0.20
     1.560804         11.85
     1.557863          1.41
     1.557122          0.42
     1.555024          8.56
     1.551587          5.06
     1.529129          0.28
     1.524775          5.06
     1.505412          8.46
     1.505034         10.28
     1.494197         56.06
     1.492450         24.57
     1.489123         21.38
     1.486104          3.28
     1.484580         19.23
     1.454745        153.90
     1.454413          6.42
     1.439982        189.59
     1.437251        430.73
     1.426915         15.24
     1.418937          9.58
     1.414594          4.13
     1.405822          0.06
     1.404973          0.31
     1.399926          8.12
     1.395755        380.01
     1.395751         20.03
     1.393264          0.27
     1.388333        164.92
     1.379103          8.71
     1.372595          0.01
     1.360939          7.35
     1.356749         12.68
     1.349355         28.77
     1.344139        129.50
     1.334594         15.74
     1.332510          3.02
     1.326047          0.03
     1.320014          3.09
     1.312313        100.98
     1.307463          1.32
     1.293634          0.20
     1.290337          3.34
     1.288371          0.90
     1.278984          1.21
     1.278307          3.86
     1.275991          3.07
     1.270570         21.41
     1.268693         44.54
     1.264420         18.47
     1.264355          4.45
     1.263231          1.17
     1.256043          5.86
     1.249230          0.93
     1.247062         41.93
     1.227131          4.26
     1.223422         34.80
     1.219820          2.09
     1.218356          0.01
     1.215280          0.07
     1.213091          1.51
     1.210925          0.64
     1.204463          9.27
     1.200003         14.31
     1.198330          6.18
     1.193713          9.19
     1.187742          0.58
     1.186955          1.82
     1.185660         14.66
     1.184410          4.63
     1.184407          8.84
     1.182886          0.49
     1.179864          1.70
     1.179629          1.95
     1.176747          1.28
     1.173283          9.37
     1.170159          7.91
     1.168928         20.87
     1.163112         25.24
     1.162778          0.43
     1.161866          0.24
     1.159428          0.02
     1.157586         33.88
     1.155635          3.93
     1.155356          1.81
     1.153097          4.04
     1.152377          6.09
     1.149830          1.26
     1.146345          7.78
     1.146130          8.56
     1.131142          1.17
     1.129816          0.99
     1.125444          1.85
     1.122406          2.81
     1.122103          6.83
     1.120855         17.64
     1.119338         19.38
     1.118963          1.52
     1.116955         15.87
     1.112059          1.06
     1.109965          2.29
     1.108564          0.65
     1.105392          0.46
     1.101535          0.37
     1.100907          4.72
     1.091601          8.19
     1.089435          1.35
     1.086589          0.11
     1.084633          0.63
     1.083471          2.42
     1.083465          0.03
     1.081367          0.92
     1.080981          1.77
     1.080759          1.29
     1.077685          2.60
     1.077352          0.10
     1.070140          3.39
     1.068034          3.28
     1.065093          3.75
     1.063420          0.84
     1.060688         28.19
     1.060517          0.75
     1.059875          0.24
     1.056492          0.28
     1.055027         36.86
     1.052676          0.52
     1.047554          0.24
     1.046816          0.06
     1.045477          5.32
     1.041250          0.01
     1.040362          0.35
     1.039736          0.85
     1.039208         15.11
     1.038885          0.12
     1.031887          1.23
     1.029544          1.76
     1.026885          1.31
     1.024735          1.12
     1.019419         17.88
     1.019327          0.54
     1.017994          0.01
     1.016517          5.28
     1.016064          1.22
     1.015103          0.62
     1.014634         26.29
     1.014186          0.32
     1.011479          5.23
     1.010290         14.08
     1.008588         12.95
##############################################################################
###                            Comments                                    ###
##############################################################################
###   Diffraction pattern calculated by Match!. 
###   I/Ic calculated by Match!. 
###   Space group has been derived from given symmetry operations. 
##############################################################################


