##############################################################################
###               Crystal structure data exported by Match!                ###
##############################################################################
###                           Data published by:                           ###
###                                                                        ###
###               COD (Crystallography Open Database)
##############################################################################
data_4124039
_citation_journal_full    'Journal of the American Chemical Society'
_citation_journal_volume  '126'
_citation_page_first  '9769'
_citation_page_last   '9775'
_citation_year  '2004'
_citation_title  'Chemical evaluation of hypothetical uninodal zeolites'
loop_
_publ_author_name
  'Foster M.D.'
  'Friedrichs O.D.'
  'Klinowski J.'
  'Bell R.G.'
  'Paz F.A.A.'
_chemical_formula_sum  'O2 Si'
_chemical_name_common  'Silica'
_symmetry_space_group_name_H-M 'R -3 c'
_space_group_IT_number 167
_space_group_crystal_system 'trigonal (hexagonal axes)'
loop_
_symmetry_equiv_pos_as_xyz
   'x, y, z'
   'x+0.66667, y+0.33333, z+0.33333'
   'x+0.33333, y+0.66667, z+0.66667'
   '-y, x-y, z'
   '-y+0.66667, x-y+0.33333, z+0.33333'
   '-y+0.33333, x-y+0.66667, z+0.66667'
   '-x+y, -x, z'
   '-x+y+0.66667, -x+0.33333, z+0.33333'
   '-x+y+0.33333, -x+0.66667, z+0.66667'
   'x-y, -y, -z+0.5'
   'x-y+0.66667, -y+0.33333, -z+0.83333'
   'x-y+0.33333, -y+0.66667, -z+0.16667'
   '-x, -x+y, -z+0.5'
   '-x+0.66667, -x+y+0.33333, -z+0.83333'
   '-x+0.33333, -x+y+0.66667, -z+0.16667'
   'y, x, -z+0.5'
   'y+0.66667, x+0.33333, -z+0.83333'
   'y+0.33333, x+0.66667, -z+0.16667'
   '-x, -y, -z'
   '-x+0.66667, -y+0.33333, -z+0.33333'
   '-x+0.33333, -y+0.66667, -z+0.66667'
   'y, -x+y, -z'
   'y+0.66667, -x+y+0.33333, -z+0.33333'
   'y+0.33333, -x+y+0.66667, -z+0.66667'
   'x-y, x, -z'
   'x-y+0.66667, x+0.33333, -z+0.33333'
   'x-y+0.33333, x+0.66667, -z+0.66667'
   '-x+y, y, z+0.5'
   '-x+y+0.66667, y+0.33333, z+0.83333'
   '-x+y+0.33333, y+0.66667, z+0.16667'
   'x, x-y, z+0.5'
   'x+0.66667, x-y+0.33333, z+0.83333'
   'x+0.33333, x-y+0.66667, z+0.16667'
   '-y, -x, z+0.5'
   '-y+0.66667, -x+0.33333, z+0.83333'
   '-y+0.33333, -x+0.66667, z+0.16667'
_cell_length_a       18.45532
_cell_length_b       18.45532
_cell_length_c        7.48346
_cell_angle_alpha    90.0000
_cell_angle_beta     90.0000
_cell_angle_gamma   120.0000
_cell_formula_units_Z 36
loop_
_atom_site_label
_atom_site_fract_x
_atom_site_fract_y
_atom_site_fract_z
_atom_site_occupancy
_atom_site_B_iso_or_equiv
o      0.500   0.500   0.000    1.00000    1.000
o      0.587   0.000   0.250    1.00000    1.000
si      0.754   0.080   0.710    1.00000    1.000
o      0.767   0.000   0.750    1.00000    1.000
o      0.613   0.946   0.917    1.00000    1.000
_cell_measurement_wavelength    1.541874
_cell_measurement_radiation   'x-rays'
_exptl_crystal_density_diffrn    1.627000
loop_
_pd_peak_d_spacing
_pd_peak_intensity
     9.227660       1000.00
     6.777345          0.00
     5.462349          0.00
     5.327592        134.78
     4.700529         82.26
     4.613830         22.56
     3.813928         34.14
     3.643224         27.75
     3.524729          0.00
     3.487728          8.40
     3.388672         88.23
     3.292695          0.02
     3.180965          0.19
     3.075887         32.26
     2.939609          0.00
     2.859285         41.92
     2.800919          2.84
     2.731175          4.09
     2.680172          8.66
     2.663796          2.07
     2.618873         11.55
     2.559292         43.19
     2.479174          0.40
     2.430418          2.95
     2.408052          3.77
     2.350264          6.53
     2.317527          0.18
     2.306915          0.06
     2.277552          0.56
     2.259115          0.00
     2.194312          0.51
     2.183867          0.02
     2.150320          2.78
     2.125162         19.55
     2.116970          2.12
     2.042277          1.84
     2.028952          7.03
     2.013641         17.39
     1.973913          6.17
     1.949037          1.76
     1.937445          1.04
     1.930245          0.00
     1.906964          1.45
     1.889351          0.53
     1.858178          0.10
     1.845532          9.80
     1.821612          5.06
     1.820783          0.00
     1.814802         14.28
     1.795413          0.02
     1.787123          3.96
     1.786340          1.47
     1.780691          1.63
     1.775864          2.61
     1.762364          0.00
     1.748434          0.08
     1.743864          3.45
     1.731076          3.28
     1.723641          1.31
     1.694336          7.08
     1.693669          4.65
     1.673193          2.72
     1.666477          0.24
     1.657337          0.51
     1.646348          0.08
     1.634974          0.37
     1.620754          0.83
     1.614647          4.62
     1.614070          0.31
     1.590482          0.73
     1.585944          4.65
     1.567371          4.79
     1.566843          4.93
     1.563027          0.00
     1.541076          2.03
     1.537943          1.03
     1.529150          1.79
     1.524018          0.64
     1.517018          5.37
     1.499812          0.00
     1.490172          0.00
     1.488812          2.35
     1.484075          1.71
     1.483626          0.12
     1.480385          1.59
     1.477608          1.32
     1.471113          0.00
     1.469805          1.28
     1.452767          4.81
     1.451507          0.01
     1.447116          3.91
     1.446700          0.00
     1.429642          0.03
     1.429242          4.00
     1.426343          0.00
     1.418045          9.59
     1.416872          2.95
     1.409603          3.28
     1.407205          0.58
     1.401592          0.00
     1.400460          0.13
     1.393439          0.75
     1.385698          0.37
     1.380791          0.01
     1.380430          0.56
     1.365587          0.61
     1.362711          1.14
     1.355469          0.00
     1.354445          0.25
     1.350875          0.08
     1.341078          2.92
     1.340086          5.93
     1.333931          0.01
     1.331898         10.52
     1.327135          2.18
     1.326174          0.11
     1.322823          1.51
     1.318237          7.85
     1.309436          0.00
     1.309128          0.80
     1.300508          1.03
     1.299603          2.19
     1.296448          0.26
     1.296150          4.75
     1.293987          0.72
     1.281449          0.05
     1.279646          2.74
     1.275421          0.56
     1.274568          0.35
     1.271309          0.79
     1.257429          0.59
     1.251732          0.05
     1.248111          0.32
     1.247243          0.30
     1.240372          6.72
     1.239587          0.00
     1.236004          0.26
     1.234711          2.46
     1.228552          0.15
     1.225886          0.99
     1.225633          0.01
     1.222233          2.22
     1.215209          2.35
     1.214408          0.78
     1.213181          0.24
     1.208062          0.72
     1.207337          0.61
     1.204807          0.31
     1.204026          0.68
     1.202830          1.08
     1.192740          0.18
     1.187874          0.04
     1.187185          0.11
     1.184779          1.55
##############################################################################
###                            Comments                                    ###
##############################################################################
###   Diffraction pattern calculated by Match!. 
###   I/Ic calculated by Match!. 
##############################################################################


