##############################################################################
###               Crystal structure data exported by Match!                ###
##############################################################################
###                           Data published by:                           ###
###                                                                        ###
###               COD (Crystallography Open Database)
##############################################################################
data_9010056
_citation_journal_full    'American Mineralogist'
_citation_journal_volume  '90'
_citation_page_first  '1563'
_citation_page_last   '1570'
_citation_year  '2005'
_citation_title  'Light-induced degradation dynamics in realgar: in situ structuralinvestigation using single crystal X-ray diffraction and X-ray photoelectronspectroscopy Sample: Getchell mine, Nevada'
loop_
_publ_author_name
  'Kyono A.'
  'Kimata M.'
  'Hatta T.'
_chemical_formula_sum  'As S'
_chemical_name_mineral  'Realgar'
_symmetry_space_group_name_H-M 'P 1 21/n 1'
_space_group_IT_number 14
_space_group_crystal_system 'monoclinic'
loop_
_symmetry_equiv_pos_as_xyz
   'x, y, z'
   '-x+0.5, y+0.5, -z+0.5'
   '-x, -y, -z'
   'x+0.5, -y+0.5, z+0.5'
_cell_length_a        9.36000
_cell_length_b       13.57300
_cell_length_c        6.59000
_cell_angle_alpha    90.0000
_cell_angle_beta    105.7100
_cell_angle_gamma    90.0000
loop_
_atom_site_label
_atom_site_fract_x
_atom_site_fract_y
_atom_site_fract_z
_atom_site_occupancy
_atom_site_B_iso_or_equiv
as      0.124   -0.021   0.765    1.00000    4.721
as      0.423   0.139   0.854    1.00000    4.461
as      0.321   0.127   0.176    1.00000    4.374
as      0.042   0.160   0.715    1.00000    4.697
s      0.346   -0.006   0.704    1.00000    4.642
s      0.213   -0.022   0.114    1.00000    4.484
s      0.239   0.226   0.644    1.00000    5.132
s      0.106   0.210   0.047    1.00000    5.179
_cell_measurement_wavelength    1.541874
_cell_measurement_radiation   'x-rays'
_exptl_crystal_density_diffrn    3.527000
loop_
_pd_peak_d_spacing
_pd_peak_intensity
     7.506832         73.38
     6.786500         61.69
     6.009326        420.62
     5.747085        453.54
     5.494859        258.62
     5.420890       1000.00
     4.634362        106.22
     4.630439         29.78
     4.505176          1.44
     4.499028         12.03
     4.382434          0.03
     4.275792         39.79
     4.062300        204.03
     4.043242         26.30
     3.824935         34.64
     3.753416         68.69
     3.683515         43.34
     3.614455          5.01
     3.606514         84.44
     3.393250          5.27
     3.236049         21.33
     3.192392        272.44
     3.191279         11.07
     3.186365         24.71
     3.175531        215.09
     3.171914        376.77
     3.100533         11.86
     3.088694         56.12
     3.053066        288.65
     3.004663          0.89
     2.992108        173.50
     2.978642         53.03
     2.955593        197.33
     2.954738          0.22
     2.951688        456.78
     2.933641        133.16
     2.932513         10.81
     2.873542         74.50
     2.784289         90.04
     2.747430         11.05
     2.746503        107.74
     2.737012        352.45
     2.710765        112.72
     2.710445         85.41
     2.657324          2.49
     2.654485          3.43
     2.653544         44.61
     2.599201        132.69
     2.597216         14.62
     2.561820          6.21
     2.530753         16.31
     2.509166         95.60
     2.502978         13.92
     2.502277        116.26
     2.495707          1.46
     2.473897        123.42
     2.468373         82.72
     2.428541         36.47
     2.389655         77.47
     2.360226          0.09
     2.359565         49.85
     2.357577         11.09
     2.341835          0.05
     2.325129          5.31
     2.319700         18.36
     2.317181          4.94
     2.315219          9.38
     2.297439          0.02
     2.288910          0.12
     2.282255          1.63
     2.269612          0.76
     2.262167        104.38
     2.252588         17.16
     2.249514          0.56
     2.249005         38.37
     2.223551         84.56
     2.222193         18.52
     2.204645         13.25
     2.195125        101.40
     2.194074         74.70
     2.191217         22.26
     2.166969         47.49
     2.166862          1.14
     2.144184          1.41
     2.137896         36.65
     2.130748          5.47
     2.128728         75.12
     2.124832         80.91
     2.117127         30.88
     2.103021         29.89
     2.092136          0.51
     2.090750          1.41
     2.089404         23.73
     2.088586          0.29
     2.072200          0.45
     2.062421          0.10
     2.061038          2.50
     2.050780         37.82
     2.040159         12.32
     2.032573          4.66
     2.031150         30.94
     2.028665          2.44
     2.021621         16.44
     2.018874          0.21
     2.016481          2.59
     2.014275          0.06
     2.013909         17.95
     2.003109         12.72
     1.997679          7.49
     1.996107         39.07
     1.981645          8.72
     1.974946         17.30
     1.944869          2.29
     1.942890          4.04
     1.941657          2.47
     1.937601         19.42
     1.926174          0.68
     1.925205          9.50
     1.921375          1.88
     1.921170          3.97
     1.915695          3.11
     1.915577          4.35
     1.912467          8.40
     1.895604          4.58
     1.884666         12.12
     1.876708          5.39
     1.871821         12.39
     1.869610         61.13
     1.862826         34.59
     1.861847         87.95
     1.860788          8.90
     1.859817          2.81
     1.854316          7.52
     1.854272         17.46
     1.845317          2.46
     1.843087          4.63
     1.841758         50.41
     1.831620          2.61
     1.826262          0.85
     1.817599         71.82
     1.816951          0.08
     1.807227          2.80
     1.806963         12.95
     1.804444         71.63
     1.803257         13.46
     1.799905         39.17
     1.794651         19.28
     1.788992          8.21
     1.788520          3.05
     1.786776         16.44
     1.786394          1.85
     1.781045          0.48
     1.779071         11.32
     1.773277          1.33
     1.768507         29.01
     1.764608          8.77
     1.761554         11.00
     1.751234         11.39
     1.744119          0.56
     1.741712         13.05
     1.733491          2.78
     1.729637         14.77
     1.729548          3.51
     1.727282          9.44
     1.724973         27.81
     1.706890         74.69
     1.698404          0.38
     1.696625         30.61
     1.693173         41.51
     1.687360         79.93
     1.686792         62.36
     1.686068          2.92
     1.680867          2.17
     1.676294         27.77
     1.675108         18.83
     1.674156          1.93
     1.669592          3.14
     1.668887          0.07
     1.668202         19.36
     1.667737         18.37
     1.667324          7.73
     1.663345         16.53
     1.654372          1.51
     1.641661         13.60
     1.639020          1.72
     1.638990         40.88
     1.638986          5.65
     1.636796         13.27
     1.632796          3.08
     1.629784          2.72
     1.629210          8.79
     1.629016          9.46
     1.627744          6.01
     1.627165          0.55
     1.625208          0.20
     1.623408         18.40
     1.621891          3.44
     1.618024          8.16
     1.611798          0.05
     1.610434         23.29
     1.602396          0.23
     1.596196          3.36
     1.595640          1.37
     1.593725          0.00
     1.593388          8.43
     1.593183         30.58
     1.593055          1.53
     1.591552          3.71
     1.591345          5.43
     1.590060          9.58
     1.587830          3.37
     1.587766          3.96
     1.585957          0.00
     1.582255          0.93
     1.580987          0.01
     1.580805          0.43
     1.577467         11.11
     1.576087          0.55
     1.575641          0.03
     1.575356         17.36
     1.575240          4.15
     1.559514          3.12
     1.558942          8.98
     1.550266         11.72
     1.549590          5.24
     1.549321          4.88
     1.548841          0.02
     1.544787          1.26
     1.544347          3.03
     1.544170         14.40
     1.543480          3.16
     1.543211          0.03
     1.541479          0.85
     1.540991          4.02
     1.540988          2.60
     1.533596          0.05
     1.526754          3.52
     1.526533          0.18
     1.524802         10.77
     1.519447         28.76
     1.516969         13.79
     1.510459          0.98
     1.507280          1.93
     1.506762         23.64
     1.505045          1.95
     1.502908          0.03
     1.502331         24.33
     1.501725          0.37
     1.501437          3.07
     1.501366          0.23
     1.499676         11.50
     1.496667          2.57
     1.496054         11.42
     1.493554          3.58
     1.493212         13.39
     1.492617          0.24
     1.490701          1.58
     1.489321          0.27
     1.487420          3.05
     1.486529          6.77
     1.485415         15.64
     1.483019          3.74
     1.482118          1.63
     1.477797          6.02
     1.477369          0.13
     1.477225          3.99
     1.476275          0.42
     1.475844         38.73
     1.474762          0.84
     1.473970         21.85
     1.470421          0.01
     1.469549          0.52
     1.467221          1.39
     1.466821          4.96
     1.466256          3.47
     1.465760          4.14
     1.463325         26.05
     1.462751          0.73
     1.460811          0.21
     1.459428          6.61
     1.453238          4.07
     1.448960          8.73
     1.446420          7.67
     1.446305          3.65
     1.442140          0.25
     1.440990          9.61
     1.440322          7.92
     1.436771          4.77
     1.433972          1.39
     1.433472          0.21
     1.430111         20.75
     1.429137         11.05
     1.425782          0.63
     1.425264          0.01
     1.421559          0.23
     1.418990          8.76
     1.416656          1.79
     1.413078          3.90
     1.411458          0.10
     1.410782          0.00
     1.409507          0.59
     1.404962          0.49
     1.404759          8.31
     1.403732          4.89
     1.403452          2.08
     1.403082          1.35
     1.403037          6.86
     1.398191          6.58
     1.393193          1.04
     1.392312          0.56
     1.392144          0.75
     1.389105          2.99
     1.384816          2.30
     1.383250          0.03
     1.381738         15.30
     1.379920          1.31
     1.379082          0.01
     1.376123          5.10
     1.373715          0.31
     1.373251          0.06
     1.373150          1.79
     1.373031          0.02
     1.372901          1.02
     1.371759          0.84
     1.370456         12.47
     1.370066          0.11
     1.369644          0.22
     1.369380          1.50
     1.368506          1.81
     1.367637          0.26
     1.363686          0.93
     1.362001          0.73
     1.361043          0.00
     1.357300          0.61
     1.355383          2.00
     1.355223          2.56
     1.354100          1.60
     1.352304          2.00
     1.352143          0.17
     1.351931          0.22
     1.347857          6.08
     1.347747          0.10
     1.347274          0.70
     1.346701          0.22
     1.342398          1.76
     1.342157          0.45
     1.341756          0.06
     1.340968          1.84
     1.333832          2.68
     1.332198          0.34
     1.330579          5.90
     1.330523          0.23
     1.328662          0.30
     1.327556          0.00
     1.327438          0.01
     1.327261          5.37
     1.327242          0.07
     1.326772         13.98
     1.324143          0.00
     1.323949          2.00
     1.323333          1.39
     1.322807          0.67
     1.321059          2.54
     1.320012          0.18
     1.319945          9.02
     1.318115          0.52
     1.317920          0.85
     1.314694          0.09
     1.314460          4.96
     1.314054          0.00
     1.311747          4.20
     1.309397          0.08
     1.309260          0.50
     1.309132          0.13
     1.308793          0.31
     1.307587          0.04
     1.306152          1.23
     1.303086          0.41
     1.302496          1.56
     1.301940          0.00
     1.301721          2.29
     1.300145          1.34
     1.299668          1.05
     1.299600          2.81
     1.298608          1.58
     1.298502          0.84
     1.295992          0.19
     1.295618          0.19
     1.294642          0.78
     1.293747          4.39
     1.293173          1.27
     1.287912          0.00
     1.286922          0.98
     1.283698          2.67
     1.283296          4.20
     1.282612          0.65
     1.281444          0.32
     1.280910          0.11
     1.279392          0.38
     1.278624          0.79
     1.278512          0.29
     1.278311          0.01
     1.276586          0.03
     1.275680          0.07
     1.274978          0.25
     1.270977          5.61
     1.270864          1.85
     1.268723          0.39
     1.266223          1.21
     1.265376          0.88
     1.265326          1.97
     1.264647          4.17
     1.263663          0.32
     1.263258          0.17
     1.262343          0.43
     1.261656          1.97
     1.257659          0.09
     1.257081          0.01
     1.256240          0.06
     1.255670          5.67
     1.254903          0.72
     1.254583          0.00
     1.254346          0.00
     1.254047          0.61
     1.253182          0.08
     1.252913          0.22
     1.252184          1.29
     1.251985          0.93
     1.251722          0.20
     1.251489          3.65
     1.251167          0.08
     1.251139          0.01
     1.247853          0.69
     1.247157          0.29
     1.246888          0.22
     1.246276          5.89
     1.244057          0.18
     1.243021          0.79
     1.241371          0.43
     1.240403          0.56
     1.240259          0.93
     1.239854          0.89
     1.238701          3.98
     1.238062          0.67
     1.236948          0.01
     1.236864          0.44
     1.236149          0.85
     1.235291          3.78
     1.235194          0.25
     1.234910          0.11
     1.234187          1.94
     1.233576          0.09
     1.232468          3.18
     1.230929          0.71
     1.230584          0.47
     1.230152          1.02
     1.229116          0.01
     1.228615          4.39
     1.228510          0.00
     1.227838          0.53
     1.227617          0.02
     1.222499          1.54
     1.221639          0.00
     1.221600          0.43
     1.220810          0.07
     1.218964          1.83
     1.218544          0.22
     1.218354          0.16
     1.215538          6.91
     1.215288          0.05
     1.215230          3.48
     1.214999          0.26
     1.214772          4.83
     1.214270          0.57
     1.213475          0.32
     1.211880          0.00
     1.211210          1.24
     1.208692          1.44
     1.207597          3.13
     1.207078          0.01
     1.204818          3.70
     1.203511          0.02
     1.202171          0.69
     1.201865          0.00
     1.199766          0.04
     1.199429          1.40
     1.199183          1.05
     1.198473          0.55
     1.197387          0.02
     1.197181          3.06
     1.197127          1.29
     1.195657          2.61
     1.195106          0.06
     1.194828          0.45
     1.193008          5.26
     1.192302          1.97
     1.191785          0.96
     1.190680          2.06
##############################################################################
###                            Comments                                    ###
##############################################################################
###   Diffraction pattern calculated by Match!. 
###   I/Ic calculated by Match!. 
##############################################################################


