##############################################################################
###               Crystal structure data exported by Match!                ###
##############################################################################
###                           Data published by:                           ###
###                                                                        ###
###               COD (Crystallography Open Database)
##############################################################################
data_1534836
_citation_journal_full    'Science'
_citation_journal_volume  '137'
_citation_page_first  '993'
_citation_page_last   '993'
_citation_year  '1962'
_citation_title  'New high-pressure polymorph of zinc oxide'
loop_
_publ_author_name
  'Bates C.H.'
  'White W.B.'
_chemical_formula_sum  'O Zn'
_chemical_name_common  'Zinc oxide'
_symmetry_space_group_name_H-M 'F m -3 m'
_space_group_IT_number 225
_space_group_crystal_system 'cubic'
loop_
_symmetry_equiv_pos_as_xyz
   'x, y, z'
   'x+0.5, y+0.5, z'
   'x+0.5, y, z+0.5'
   'x, y+0.5, z+0.5'
   '-y, x, z'
   '-y+0.5, x+0.5, z'
   '-y+0.5, x, z+0.5'
   '-y, x+0.5, z+0.5'
   '-x, -y, z'
   '-x+0.5, -y+0.5, z'
   '-x+0.5, -y, z+0.5'
   '-x, -y+0.5, z+0.5'
   'y, -x, z'
   'y+0.5, -x+0.5, z'
   'y+0.5, -x, z+0.5'
   'y, -x+0.5, z+0.5'
   'x, -z, y'
   'x+0.5, -z+0.5, y'
   'x+0.5, -z, y+0.5'
   'x, -z+0.5, y+0.5'
   'x, -y, -z'
   'x+0.5, -y+0.5, -z'
   'x+0.5, -y, -z+0.5'
   'x, -y+0.5, -z+0.5'
   'x, z, -y'
   'x+0.5, z+0.5, -y'
   'x+0.5, z, -y+0.5'
   'x, z+0.5, -y+0.5'
   'z, y, -x'
   'z+0.5, y+0.5, -x'
   'z+0.5, y, -x+0.5'
   'z, y+0.5, -x+0.5'
   '-x, y, -z'
   '-x+0.5, y+0.5, -z'
   '-x+0.5, y, -z+0.5'
   '-x, y+0.5, -z+0.5'
   '-z, y, x'
   '-z+0.5, y+0.5, x'
   '-z+0.5, y, x+0.5'
   '-z, y+0.5, x+0.5'
   'z, x, y'
   'z+0.5, x+0.5, y'
   'z+0.5, x, y+0.5'
   'z, x+0.5, y+0.5'
   'y, z, x'
   'y+0.5, z+0.5, x'
   'y+0.5, z, x+0.5'
   'y, z+0.5, x+0.5'
   '-y, -z, x'
   '-y+0.5, -z+0.5, x'
   '-y+0.5, -z, x+0.5'
   '-y, -z+0.5, x+0.5'
   'z, -x, -y'
   'z+0.5, -x+0.5, -y'
   'z+0.5, -x, -y+0.5'
   'z, -x+0.5, -y+0.5'
   '-y, z, -x'
   '-y+0.5, z+0.5, -x'
   '-y+0.5, z, -x+0.5'
   '-y, z+0.5, -x+0.5'
   '-z, -x, y'
   '-z+0.5, -x+0.5, y'
   '-z+0.5, -x, y+0.5'
   '-z, -x+0.5, y+0.5'
   '-z, x, -y'
   '-z+0.5, x+0.5, -y'
   '-z+0.5, x, -y+0.5'
   '-z, x+0.5, -y+0.5'
   'y, -z, -x'
   'y+0.5, -z+0.5, -x'
   'y+0.5, -z, -x+0.5'
   'y, -z+0.5, -x+0.5'
   'y, x, -z'
   'y+0.5, x+0.5, -z'
   'y+0.5, x, -z+0.5'
   'y, x+0.5, -z+0.5'
   '-y, -x, -z'
   '-y+0.5, -x+0.5, -z'
   '-y+0.5, -x, -z+0.5'
   '-y, -x+0.5, -z+0.5'
   '-x, z, y'
   '-x+0.5, z+0.5, y'
   '-x+0.5, z, y+0.5'
   '-x, z+0.5, y+0.5'
   '-x, -z, -y'
   '-x+0.5, -z+0.5, -y'
   '-x+0.5, -z, -y+0.5'
   '-x, -z+0.5, -y+0.5'
   'z, -y, x'
   'z+0.5, -y+0.5, x'
   'z+0.5, -y, x+0.5'
   'z, -y+0.5, x+0.5'
   '-z, -y, -x'
   '-z+0.5, -y+0.5, -x'
   '-z+0.5, -y, -x+0.5'
   '-z, -y+0.5, -x+0.5'
   '-x, -y, -z'
   '-x+0.5, -y+0.5, -z'
   '-x+0.5, -y, -z+0.5'
   '-x, -y+0.5, -z+0.5'
   'y, -x, -z'
   'y+0.5, -x+0.5, -z'
   'y+0.5, -x, -z+0.5'
   'y, -x+0.5, -z+0.5'
   'x, y, -z'
   'x+0.5, y+0.5, -z'
   'x+0.5, y, -z+0.5'
   'x, y+0.5, -z+0.5'
   '-y, x, -z'
   '-y+0.5, x+0.5, -z'
   '-y+0.5, x, -z+0.5'
   '-y, x+0.5, -z+0.5'
   '-x, z, -y'
   '-x+0.5, z+0.5, -y'
   '-x+0.5, z, -y+0.5'
   '-x, z+0.5, -y+0.5'
   '-x, y, z'
   '-x+0.5, y+0.5, z'
   '-x+0.5, y, z+0.5'
   '-x, y+0.5, z+0.5'
   '-x, -z, y'
   '-x+0.5, -z+0.5, y'
   '-x+0.5, -z, y+0.5'
   '-x, -z+0.5, y+0.5'
   '-z, -y, x'
   '-z+0.5, -y+0.5, x'
   '-z+0.5, -y, x+0.5'
   '-z, -y+0.5, x+0.5'
   'x, -y, z'
   'x+0.5, -y+0.5, z'
   'x+0.5, -y, z+0.5'
   'x, -y+0.5, z+0.5'
   'z, -y, -x'
   'z+0.5, -y+0.5, -x'
   'z+0.5, -y, -x+0.5'
   'z, -y+0.5, -x+0.5'
   '-z, -x, -y'
   '-z+0.5, -x+0.5, -y'
   '-z+0.5, -x, -y+0.5'
   '-z, -x+0.5, -y+0.5'
   '-y, -z, -x'
   '-y+0.5, -z+0.5, -x'
   '-y+0.5, -z, -x+0.5'
   '-y, -z+0.5, -x+0.5'
   'y, z, -x'
   'y+0.5, z+0.5, -x'
   'y+0.5, z, -x+0.5'
   'y, z+0.5, -x+0.5'
   '-z, x, y'
   '-z+0.5, x+0.5, y'
   '-z+0.5, x, y+0.5'
   '-z, x+0.5, y+0.5'
   'y, -z, x'
   'y+0.5, -z+0.5, x'
   'y+0.5, -z, x+0.5'
   'y, -z+0.5, x+0.5'
   'z, x, -y'
   'z+0.5, x+0.5, -y'
   'z+0.5, x, -y+0.5'
   'z, x+0.5, -y+0.5'
   'z, -x, y'
   'z+0.5, -x+0.5, y'
   'z+0.5, -x, y+0.5'
   'z, -x+0.5, y+0.5'
   '-y, z, x'
   '-y+0.5, z+0.5, x'
   '-y+0.5, z, x+0.5'
   '-y, z+0.5, x+0.5'
   '-y, -x, z'
   '-y+0.5, -x+0.5, z'
   '-y+0.5, -x, z+0.5'
   '-y, -x+0.5, z+0.5'
   'y, x, z'
   'y+0.5, x+0.5, z'
   'y+0.5, x, z+0.5'
   'y, x+0.5, z+0.5'
   'x, -z, -y'
   'x+0.5, -z+0.5, -y'
   'x+0.5, -z, -y+0.5'
   'x, -z+0.5, -y+0.5'
   'x, z, y'
   'x+0.5, z+0.5, y'
   'x+0.5, z, y+0.5'
   'x, z+0.5, y+0.5'
   '-z, y, -x'
   '-z+0.5, y+0.5, -x'
   '-z+0.5, y, -x+0.5'
   '-z, y+0.5, -x+0.5'
   'z, y, x'
   'z+0.5, y+0.5, x'
   'z+0.5, y, x+0.5'
   'z, y+0.5, x+0.5'
_cell_length_a        4.28000
_cell_length_b        4.28000
_cell_length_c        4.28000
_cell_angle_alpha    90.0000
_cell_angle_beta     90.0000
_cell_angle_gamma    90.0000
_cell_formula_units_Z 4
loop_
_atom_site_label
_atom_site_fract_x
_atom_site_fract_y
_atom_site_fract_z
_atom_site_occupancy
_atom_site_B_iso_or_equiv
zn      0.000   0.000   0.000    1.00000    1.000
o      0.500   0.500   0.500    1.00000    1.000
_cell_measurement_wavelength    1.541874
_cell_measurement_radiation   'x-rays'
_exptl_crystal_density_diffrn    6.895000
loop_
_pd_peak_d_spacing
_pd_peak_intensity
     2.471059        835.45
     2.140000       1000.00
     1.513209        535.00
     1.290469        266.60
     1.235530        149.58
     1.070000         63.82
     0.981899        104.78
     0.957037        190.14
     0.873651        180.91
     0.823686        147.74
##############################################################################
###                            Comments                                    ###
##############################################################################
###   Diffraction pattern calculated by Match!. 
###   I/Ic calculated by Match!. 
##############################################################################


