##############################################################################
###               Crystal structure data exported by Match!                ###
##############################################################################
###                           Data published by:                           ###
###                                                                        ###
###               COD (Crystallography Open Database)
##############################################################################
data_9012101
_citation_journal_full    'Dalton Transactions'
_citation_journal_volume  '1972'
_citation_page_first  '1347'
_citation_page_last   '1349'
_citation_year  '1972'
_citation_title  'Crystal structure of a new crystalline modification of tetra-arsenictetrasuphide (2,3,4,8-tetrathia1,2,3,7-tetra-arsatricyclo[3,3,0,0]-octane)Locality: synthetic'
loop_
_publ_author_name
  'Porter E. J.'
  'Sheldrick G. M.'
_chemical_formula_sum  'As S'
_chemical_name_mineral  'Pararealgar'
_symmetry_space_group_name_H-M 'C 1 2/c 1'
_space_group_IT_number 15
_space_group_crystal_system 'monoclinic'
loop_
_symmetry_equiv_pos_as_xyz
   'x, y, z'
   'x+0.5, y+0.5, z'
   '-x, y, -z+0.5'
   '-x+0.5, y+0.5, -z+0.5'
   '-x, -y, -z'
   '-x+0.5, -y+0.5, -z'
   'x, -y, z+0.5'
   'x+0.5, -y+0.5, z+0.5'
_cell_length_a        9.95700
_cell_length_b        9.33500
_cell_length_c        8.88900
_cell_angle_alpha    90.0000
_cell_angle_beta    102.4800
_cell_angle_gamma    90.0000
loop_
_atom_site_label
_atom_site_fract_x
_atom_site_fract_y
_atom_site_fract_z
_atom_site_occupancy
_atom_site_B_iso_or_equiv
as      -0.001   -0.206   0.055    1.00000    3.476
as      -0.160   -0.401   0.126    1.00000    3.324
s      0.000   -0.053   0.250    1.00000    3.863
s      0.000   -0.552   0.250    1.00000    4.124
s      -0.202   -0.305   0.341    1.00000    4.289
_cell_measurement_wavelength    1.541874
_cell_measurement_radiation   'x-rays'
_exptl_crystal_density_diffrn    3.524000
loop_
_pd_peak_d_spacing
_pd_peak_intensity
     6.733411        103.04
     5.753431       1000.00
     4.971838        318.84
     4.860865        232.03
     4.667500        128.87
     4.339483          4.80
     4.110743        146.24
     3.924889        383.02
     3.653024         10.54
     3.421839         43.74
     3.366705         52.35
     3.310319         65.46
     3.178119        248.86
     3.091811          6.82
     3.061363        430.21
     2.991475        570.15
     2.963563         61.61
     2.937168        186.08
     2.876715        597.48
     2.862832        141.85
     2.815258        269.71
     2.783466         24.15
     2.749720         73.60
     2.718190         62.09
     2.526034         48.45
     2.524525        175.92
     2.485919         61.78
     2.458962         35.84
     2.430433         58.16
     2.377091        128.13
     2.375515         59.13
     2.356478          1.54
     2.347811         32.47
     2.333750          1.87
     2.290909          0.06
     2.256387         63.17
     2.253694          0.04
     2.244470        179.18
     2.192756        137.72
     2.169742         21.48
     2.162911         52.21
     2.161784         32.58
     2.155690         65.39
     2.141882         91.80
     2.127781         38.50
     2.103839         55.76
     2.098192         49.88
     2.097412         12.94
     2.089867         21.98
     2.055371          3.82
     2.047900          0.08
     2.005179         20.57
     2.004181          9.87
     2.002199         18.95
     1.980450         13.07
     1.970095         51.84
     1.967542          0.02
     1.966673         66.99
     1.962445          5.08
     1.948562          0.30
     1.947516          9.48
     1.917810         83.92
     1.916406         23.92
     1.913171          6.22
     1.903495          0.60
     1.897045         15.48
     1.881964          3.30
     1.838919         44.66
     1.833496         94.93
     1.827193         11.36
     1.826512         43.08
     1.816408        106.98
     1.808873          0.63
     1.808389         15.15
     1.798157         89.96
     1.782649          6.70
     1.782082         53.46
     1.779297          0.01
     1.771537         85.51
     1.745167          1.28
     1.714162          5.06
     1.710920          0.01
     1.700914          1.83
     1.700826         30.98
     1.698177          0.64
     1.691635          7.79
     1.683353         38.04
     1.677276         22.82
     1.664780        122.60
     1.662600         84.86
     1.657279         47.91
     1.655159          6.30
     1.648908          3.36
     1.646443         24.26
     1.644710          4.60
     1.638378         11.49
     1.630500         72.94
     1.626932         79.44
     1.623142         31.26
     1.622167          0.12
     1.621533         31.20
     1.620968         16.05
     1.620288         83.21
     1.617722          1.85
     1.609642          4.37
     1.608175          0.05
     1.589060         21.91
     1.588815         22.61
     1.586371          0.87
     1.578017          0.19
     1.572353         12.23
     1.568092          5.98
     1.562982          0.00
     1.560894          1.36
     1.560299          0.17
     1.560001         54.49
     1.555833          6.10
     1.545905         25.00
     1.542766         48.97
     1.531421         13.89
     1.530682          1.99
     1.520892          1.15
     1.499666          0.72
     1.495738         15.93
     1.484838          0.77
     1.483989         11.91
     1.481782          0.49
     1.481693          0.47
     1.476875         25.31
     1.476368          0.84
     1.468584          7.31
     1.464974          6.23
     1.464549          0.45
     1.459808         12.36
     1.458058          5.35
     1.457385          6.31
     1.456566          2.15
     1.456529          3.76
     1.455366         16.76
     1.455077          5.07
     1.454958          0.38
     1.446751          2.77
     1.446494          1.75
     1.444940          1.06
     1.444393          0.09
     1.443631         11.97
     1.438358          1.43
     1.431416         19.41
     1.429457          0.01
     1.425040          0.30
     1.420655          0.28
     1.407629          6.48
     1.404965          0.18
     1.403936          5.49
     1.400878          4.64
     1.398474          5.99
     1.392879         34.95
     1.392783          2.14
     1.391733          0.13
     1.381666          0.21
     1.381070         13.82
     1.374860          4.17
     1.373699          0.63
     1.373124          4.01
     1.372670          2.79
     1.370248          9.04
     1.369658          8.19
     1.368644          0.28
     1.362004          0.00
     1.359095          7.15
     1.358514         11.45
     1.355580          0.25
     1.352026          1.89
     1.351231          0.11
     1.346682          9.71
     1.344392         36.78
     1.340927          0.10
     1.335045          4.12
     1.331424         11.52
     1.330955          0.55
     1.324314          0.78
     1.322638          0.04
     1.321199          4.51
     1.318538          0.11
     1.314129          0.26
     1.311896          7.27
     1.311118         19.18
     1.310414         12.86
     1.310347          2.88
     1.308296          0.44
     1.301567          0.02
     1.300948          1.27
     1.300481          2.50
     1.299916         16.31
     1.297442          0.28
     1.296917          3.36
     1.292162          3.38
     1.291909          7.23
     1.290722          2.37
     1.287648          2.12
     1.286975          0.27
     1.285614         16.27
     1.284950          7.33
     1.283277          0.01
     1.281923          0.33
     1.281365          5.18
     1.274388          5.78
     1.273938          4.71
     1.268231          4.80
     1.267421          0.60
     1.264373          2.97
     1.263017          1.94
     1.262263          0.00
     1.256252          3.33
     1.253700          3.02
     1.253217          2.80
     1.252768          0.19
     1.251476          0.02
     1.249587          5.58
     1.247668          8.70
     1.242960          1.22
     1.241965          1.92
     1.240789          6.21
     1.240681          7.68
     1.236559          5.39
     1.235845          0.76
     1.235625          0.26
     1.235195          2.78
     1.234915          0.01
     1.234666          9.79
     1.233229         15.19
     1.229639          0.01
     1.229481          0.50
     1.224411          2.34
     1.220907          0.03
     1.217675          3.95
     1.215819          6.20
     1.215509          0.08
     1.215366          4.01
     1.215216          2.62
     1.213496          1.07
     1.212772          3.85
     1.210417          1.94
     1.210315          1.13
     1.207215          2.35
     1.203231          0.42
     1.202068          0.89
     1.200203          7.95
     1.199209          0.01
     1.198296          2.30
     1.188683          4.15
     1.188546          0.76
     1.188094          0.66
     1.187758          0.54
     1.184395          1.85
     1.181588          0.10
     1.178830          7.96
     1.178239          0.04
     1.176645          0.01
     1.176011          0.91
     1.173905          2.86
     1.171598          0.05
     1.169685          3.96
     1.166875          2.47
     1.165672          0.08
     1.165541          4.55
     1.161407          1.05
     1.161335          0.51
     1.160332          0.65
     1.158829          0.78
     1.158557          6.91
     1.157367          0.92
     1.156840          0.33
     1.156469          2.51
     1.156458          0.07
     1.150686          0.30
     1.149364          6.53
     1.145454          0.65
     1.144551          0.57
     1.143470          1.51
     1.143076          0.76
     1.141205          0.18
     1.140613          0.00
     1.139487          0.00
     1.138451          0.00
     1.136403         13.36
##############################################################################
###                            Comments                                    ###
##############################################################################
###   Diffraction pattern calculated by Match!. 
###   I/Ic calculated by Match!. 
###   Space group has been derived from given symmetry operations. 
##############################################################################


