##############################################################################
###               Crystal structure data exported by Match!                ###
##############################################################################
###                           Data published by:                           ###
###                                                                        ###
###               COD (Crystallography Open Database)
##############################################################################
data_2310419
_citation_journal_full    'Acta Crystallographica (1,1948-23,1967)'
_citation_journal_volume  '21'
_citation_page_first  '808'
_citation_page_last   '813'
_citation_year  '1966'
_citation_title  'Die Struktur des As2 O5 (H2 O)1.6666'
loop_
_publ_author_name
  'Jost K.H.'
  'Worzala H.'
  'Thilo E.'
_chemical_formula_sum  'As3 H5 O10'
_symmetry_space_group_name_H-M 'P -1'
_space_group_IT_number 2
_space_group_crystal_system 'triclinic'
loop_
_symmetry_equiv_pos_as_xyz
   'x, y, z'
   '-x, -y, -z'
_cell_length_a        7.27000
_cell_length_b        5.70000
_cell_length_c        4.67000
_cell_angle_alpha    99.8000
_cell_angle_beta     98.0000
_cell_angle_gamma    99.7000
_cell_formula_units_Z 1
loop_
_atom_site_label
_atom_site_fract_x
_atom_site_fract_y
_atom_site_fract_z
_atom_site_occupancy
_atom_site_B_iso_or_equiv
h      0.100   0.848   0.773    1.00000    1.000
o      0.395   0.703   0.319    1.00000    1.000
o      0.396   0.245   0.194    1.00000    1.000
h      0.000   0.500   0.000    1.00000    1.000
h      0.361   0.850   0.400    1.00000    1.000
as      0.500   0.500   0.500    1.00000    1.000
o      0.285   0.441   0.676    1.00000    1.000
as      0.232   0.246   0.901    1.00000    1.000
o      0.029   0.299   0.012    1.00000    1.000
o      0.193   0.960   0.697    1.00000    1.000
_cell_measurement_wavelength    1.541874
_cell_measurement_radiation   'x-rays'
_exptl_crystal_density_diffrn    3.496000
loop_
_pd_peak_d_spacing
_pd_peak_intensity
     7.058255        205.84
     5.506822        174.30
     4.827201       1000.00
     4.532623         37.95
     4.154278          4.90
     3.978342         44.97
     3.899789          1.44
     3.545516        429.07
     3.529127         43.63
     3.426816        425.50
     3.400192         19.83
     3.279140         18.30
     3.216058          8.31
     3.201783        141.40
     3.051973        271.05
     2.755445         30.51
     2.753411         45.25
     2.736554         54.41
     2.711982          7.65
     2.686494        179.38
     2.628802         37.89
     2.604813        122.47
     2.592516        117.12
     2.577087          8.10
     2.504758          2.58
     2.413600         34.39
     2.409506          4.41
     2.368092          0.91
     2.352752         14.76
     2.336161         31.01
     2.275289         27.11
     2.266311          9.43
     2.259464         63.20
     2.253491        108.08
     2.228421         10.21
     2.211438          6.90
     2.181419          4.01
     2.169955        147.38
     2.154695         54.23
     2.133406          1.09
     2.096917          4.90
     2.082779         21.56
     2.077139          4.92
     2.056827         12.85
     2.024312         34.35
     2.022786          0.24
     2.008855         28.66
     2.008034          9.54
     2.006368         18.78
     1.993012          4.06
     1.989171         39.52
     1.987222          2.74
     1.963171          0.03
     1.954640         14.99
     1.949894          1.32
     1.948035          0.56
     1.902506         39.68
     1.883953          0.87
     1.875065         92.82
     1.868406          4.40
     1.835607          1.75
     1.832574         23.22
     1.831115         30.68
     1.828440          7.39
     1.826303          1.06
     1.822569         31.77
     1.794509          1.10
     1.792356          2.52
     1.785702         14.83
     1.778153          9.06
     1.772758          9.12
     1.764564         36.51
     1.749747          4.47
     1.727831         19.21
     1.721485         12.82
     1.717863          1.10
     1.713408         26.86
     1.712440          0.01
     1.709673         39.51
     1.702753          0.01
     1.700096         14.44
     1.696970         45.73
     1.678826          0.00
     1.671710          0.71
     1.647580          1.56
     1.639570          1.08
     1.639524         30.63
     1.636576          5.37
     1.613242          4.95
     1.609067         23.43
     1.608029         16.57
     1.602116          7.02
     1.600892          1.56
     1.599166         13.11
     1.594854          0.02
     1.591773          1.48
     1.588905          1.06
     1.574778         44.27
     1.566757          3.51
     1.563160         27.43
     1.559930          8.47
     1.555962          0.43
     1.548103          0.00
     1.543718          0.33
     1.540922          0.01
     1.536908          4.86
     1.533990         16.72
     1.532608          0.82
     1.525986         26.62
     1.521293         23.03
     1.511208          0.01
     1.510874          0.96
     1.508155         16.69
     1.507265         16.68
     1.498686         27.18
     1.494563          2.05
     1.490395          6.99
     1.487186         47.46
     1.484879          1.34
     1.484667          0.45
     1.483434          1.05
     1.476346         28.26
     1.475873         16.36
     1.465364          9.26
     1.456865         27.64
     1.451577          0.69
     1.439598         26.35
     1.437214         28.60
     1.434088         20.37
     1.427768         21.40
     1.422805         11.54
     1.421796          1.87
     1.419523          5.06
     1.419414          0.02
     1.419224          2.10
     1.411651          2.01
     1.410751         11.12
     1.409929         17.14
     1.404686          6.24
     1.404204          7.38
     1.403304         17.75
     1.396585          2.57
     1.394899          0.36
     1.388438         15.40
     1.384759         18.11
     1.377722          0.54
     1.376705         27.70
     1.372831          4.84
     1.370526         16.45
     1.369055         10.51
     1.368277          0.00
     1.366736          0.61
     1.364392          1.56
     1.364350         13.60
     1.360150         11.91
     1.355991          2.16
     1.350616         19.40
     1.349017          1.59
     1.347948          5.70
     1.343247          1.77
     1.342397          0.21
     1.341287         15.03
     1.337695          1.27
     1.333326          0.11
     1.332821         13.84
     1.332575          4.52
     1.331296         16.30
     1.326114          0.44
     1.323468          0.16
     1.322489          7.50
     1.314401          2.26
     1.314010         10.41
     1.311536          0.00
     1.309481          0.47
     1.306926          0.56
     1.305583          2.09
     1.305363         11.26
     1.303854          0.01
     1.303565          9.23
     1.302407          0.30
     1.299930         19.35
     1.296258          2.64
     1.295014          3.46
     1.288543          2.18
     1.288221          5.35
     1.287632          0.02
     1.287480          1.49
     1.286541          1.17
     1.286173         15.56
     1.281826          0.00
     1.280532          3.64
     1.278801          8.01
     1.276336          0.01
     1.272576          9.56
     1.271212          3.19
     1.260286          0.05
     1.257138         10.92
     1.255764         11.35
     1.252379          1.91
     1.250118          0.21
     1.249713          6.43
     1.249674          1.38
     1.243608          0.00
     1.238011         17.84
     1.235212          4.11
     1.232956          7.33
     1.231901          2.77
     1.225950          0.02
     1.224880          8.38
     1.223472          0.03
     1.221942         12.03
     1.220934          0.57
     1.216182          2.37
     1.210825          2.10
     1.210331          0.26
     1.209027          2.56
     1.206800         10.98
     1.205624          0.99
     1.204779         14.15
     1.204753          1.72
     1.202404          7.96
     1.199914          0.87
     1.199701          0.34
     1.198259          3.35
     1.197522          3.91
     1.197441          2.26
     1.197006          1.45
     1.195230         11.33
     1.193870          4.37
     1.191788          6.73
     1.189741          6.62
     1.188801          2.59
     1.185706          3.90
     1.184046          0.14
     1.182676          0.68
     1.181839          0.01
     1.179326          8.56
     1.176376          0.58
     1.168080          9.65
     1.166378          6.91
     1.166287          7.97
     1.163967          1.10
     1.162829          5.88
     1.156872          2.22
     1.156105          7.49
     1.155805          0.14
     1.152826          1.81
     1.150826          0.70
     1.150375          6.68
     1.150345          0.35
     1.148488          0.11
     1.145338          0.03
     1.142272          1.75
     1.138742          1.19
     1.138480          8.50
     1.137644          6.20
     1.136807          0.21
     1.135982          1.61
     1.135328          2.85
     1.133847          0.42
     1.133397          2.60
     1.133156          0.09
     1.131808          0.07
     1.130430          2.88
     1.129732          6.91
     1.129130          0.07
     1.127325          6.28
     1.126745          0.16
     1.123918          1.61
     1.123393         13.09
     1.122541          0.00
     1.122389          8.88
     1.122145          4.00
     1.117106          0.01
     1.115861          0.06
     1.115698          2.88
     1.114871          0.27
     1.114211          0.07
     1.112883          2.82
     1.112596          0.03
     1.108518          2.80
     1.107959          0.18
     1.106751          4.10
     1.105719          0.45
     1.102405          1.16
     1.101364          1.12
     1.099940          3.66
     1.099791          0.41
     1.099619          4.79
     1.098539          0.11
     1.097909          0.54
     1.097769          1.22
     1.097726          3.22
     1.095943          0.27
     1.095929          6.03
     1.095257          0.06
     1.094227          0.01
     1.093625          2.83
     1.093047          6.03
     1.091765          0.00
     1.090709          0.96
     1.089744          0.65
     1.089740          1.00
     1.088680          0.51
     1.088294          0.09
     1.085320          6.90
     1.084978          1.46
     1.084868          0.16
     1.084015          4.44
     1.083927          0.33
     1.082712          1.08
     1.082409         10.63
     1.082146          0.06
     1.081699          5.15
     1.078248          6.43
     1.077347          2.72
     1.074672          6.58
     1.073012          0.34
     1.072395          0.87
     1.072019          0.79
     1.071213          0.74
     1.068828          0.44
     1.067261          0.10
     1.066703          0.63
     1.066532          0.23
     1.064617          1.57
     1.063102          0.67
     1.062984          1.26
     1.060672          3.10
     1.058767          0.01
     1.057254          0.02
     1.056950          1.12
     1.056833          5.01
     1.056459          4.19
     1.055516          1.59
     1.052459          0.20
     1.051880          5.37
     1.051229          5.20
     1.048710          0.11
     1.048458          1.06
     1.048338          0.00
     1.047617          0.00
     1.045018          5.85
     1.043881          3.86
     1.042581          0.53
     1.042020          4.51
     1.041390          5.52
     1.040572          1.54
     1.038569          0.13
     1.037964          0.28
     1.036284          0.02
     1.036003          0.35
     1.034423          5.61
     1.033056          2.87
     1.031708          5.53
     1.030386          2.88
     1.029840          1.13
     1.028414          6.84
     1.028362          0.34
     1.028262          0.85
     1.027141          0.77
     1.026641          3.14
     1.026627          5.22
     1.025651          7.17
     1.024599          2.47
     1.024474          1.09
     1.024043          0.35
     1.024034          1.79
     1.023133          1.89
     1.022425          0.00
     1.020190          2.75
     1.017324          1.75
     1.013470          0.01
     1.012975          0.64
     1.012156          5.22
     1.011393          4.46
     1.010957          1.06
     1.010178          4.72
     1.008541          0.52
     1.008322          3.21
     1.007025          0.45
     1.006396          0.07
##############################################################################
###                            Comments                                    ###
##############################################################################
###   Diffraction pattern calculated by Match!. 
###   I/Ic calculated by Match!. 
###   Space group has been derived from given symmetry operations. 
##############################################################################


