##############################################################################
###               Crystal structure data exported by Match!                ###
##############################################################################
###                           Data published by:                           ###
###                                                                        ###
###               COD (Crystallography Open Database)
##############################################################################
data_1514233
_citation_journal_full    'ChemPhysChem'
_citation_journal_volume  '3(4)'
_citation_page_first  '367'
_citation_page_last   '370'
_citation_year  '2002'
_citation_title  'Atomic level study of Li Mn2 O4 as electrode in lithium batteries'
loop_
_publ_author_name
  'Monge M. A.'
  'Angeles Monge M.'
  'Amarilla J. M.'
  'Gutierrez Puebla E.'
  'Campa J. A.'
  'Rasines I.'
_chemical_formula_sum  'Mn2.03 O4'
_chemical_name_common  'Manganese Oxide (2.03/4)'
_symmetry_space_group_name_H-M 'F d -3 m'
_space_group_IT_number 227
_space_group_crystal_system 'cubic'
loop_
_symmetry_equiv_pos_as_xyz
   'x, y, z'
   'x+0.5, y+0.5, z'
   'x+0.5, y, z+0.5'
   'x, y+0.5, z+0.5'
   '-y, x+0.25, z+0.25'
   '-y+0.5, x+0.75, z+0.25'
   '-y+0.5, x+0.25, z+0.75'
   '-y, x+0.75, z+0.75'
   '-x+0.25, -y+0.25, z'
   '-x+0.75, -y+0.75, z'
   '-x+0.75, -y+0.25, z+0.5'
   '-x+0.25, -y+0.75, z+0.5'
   'y+0.25, -x, z+0.25'
   'y+0.75, -x+0.5, z+0.25'
   'y+0.75, -x, z+0.75'
   'y+0.25, -x+0.5, z+0.75'
   'x+0.25, -z, y+0.25'
   'x+0.75, -z+0.5, y+0.25'
   'x+0.75, -z, y+0.75'
   'x+0.25, -z+0.5, y+0.75'
   'x, -y+0.25, -z+0.25'
   'x+0.5, -y+0.75, -z+0.25'
   'x+0.5, -y+0.25, -z+0.75'
   'x, -y+0.75, -z+0.75'
   'x+0.25, z+0.25, -y'
   'x+0.75, z+0.75, -y'
   'x+0.75, z+0.25, -y+0.5'
   'x+0.25, z+0.75, -y+0.5'
   'z+0.25, y+0.25, -x'
   'z+0.75, y+0.75, -x'
   'z+0.75, y+0.25, -x+0.5'
   'z+0.25, y+0.75, -x+0.5'
   '-x+0.25, y, -z+0.25'
   '-x+0.75, y+0.5, -z+0.25'
   '-x+0.75, y, -z+0.75'
   '-x+0.25, y+0.5, -z+0.75'
   '-z, y+0.25, x+0.25'
   '-z+0.5, y+0.75, x+0.25'
   '-z+0.5, y+0.25, x+0.75'
   '-z, y+0.75, x+0.75'
   'z, x, y'
   'z+0.5, x+0.5, y'
   'z+0.5, x, y+0.5'
   'z, x+0.5, y+0.5'
   'y, z, x'
   'y+0.5, z+0.5, x'
   'y+0.5, z, x+0.5'
   'y, z+0.5, x+0.5'
   '-y+0.25, -z+0.25, x'
   '-y+0.75, -z+0.75, x'
   '-y+0.75, -z+0.25, x+0.5'
   '-y+0.25, -z+0.75, x+0.5'
   'z, -x+0.25, -y+0.25'
   'z+0.5, -x+0.75, -y+0.25'
   'z+0.5, -x+0.25, -y+0.75'
   'z, -x+0.75, -y+0.75'
   '-y+0.25, z, -x+0.25'
   '-y+0.75, z+0.5, -x+0.25'
   '-y+0.75, z, -x+0.75'
   '-y+0.25, z+0.5, -x+0.75'
   '-z+0.25, -x+0.25, y'
   '-z+0.75, -x+0.75, y'
   '-z+0.75, -x+0.25, y+0.5'
   '-z+0.25, -x+0.75, y+0.5'
   '-z+0.25, x, -y+0.25'
   '-z+0.75, x+0.5, -y+0.25'
   '-z+0.75, x, -y+0.75'
   '-z+0.25, x+0.5, -y+0.75'
   'y, -z+0.25, -x+0.25'
   'y+0.5, -z+0.75, -x+0.25'
   'y+0.5, -z+0.25, -x+0.75'
   'y, -z+0.75, -x+0.75'
   'y+0.25, x+0.25, -z'
   'y+0.75, x+0.75, -z'
   'y+0.75, x+0.25, -z+0.5'
   'y+0.25, x+0.75, -z+0.5'
   '-y, -x, -z'
   '-y+0.5, -x+0.5, -z'
   '-y+0.5, -x, -z+0.5'
   '-y, -x+0.5, -z+0.5'
   '-x, z+0.25, y+0.25'
   '-x+0.5, z+0.75, y+0.25'
   '-x+0.5, z+0.25, y+0.75'
   '-x, z+0.75, y+0.75'
   '-x, -z, -y'
   '-x+0.5, -z+0.5, -y'
   '-x+0.5, -z, -y+0.5'
   '-x, -z+0.5, -y+0.5'
   'z+0.25, -y, x+0.25'
   'z+0.75, -y+0.5, x+0.25'
   'z+0.75, -y, x+0.75'
   'z+0.25, -y+0.5, x+0.75'
   '-z, -y, -x'
   '-z+0.5, -y+0.5, -x'
   '-z+0.5, -y, -x+0.5'
   '-z, -y+0.5, -x+0.5'
   '-x, -y, -z'
   '-x+0.5, -y+0.5, -z'
   '-x+0.5, -y, -z+0.5'
   '-x, -y+0.5, -z+0.5'
   'y, -x+0.25, -z+0.25'
   'y+0.5, -x+0.75, -z+0.25'
   'y+0.5, -x+0.25, -z+0.75'
   'y, -x+0.75, -z+0.75'
   'x+0.25, y+0.25, -z'
   'x+0.75, y+0.75, -z'
   'x+0.75, y+0.25, -z+0.5'
   'x+0.25, y+0.75, -z+0.5'
   '-y+0.25, x, -z+0.25'
   '-y+0.75, x+0.5, -z+0.25'
   '-y+0.75, x, -z+0.75'
   '-y+0.25, x+0.5, -z+0.75'
   '-x+0.25, z, -y+0.25'
   '-x+0.75, z+0.5, -y+0.25'
   '-x+0.75, z, -y+0.75'
   '-x+0.25, z+0.5, -y+0.75'
   '-x, y+0.25, z+0.25'
   '-x+0.5, y+0.75, z+0.25'
   '-x+0.5, y+0.25, z+0.75'
   '-x, y+0.75, z+0.75'
   '-x+0.25, -z+0.25, y'
   '-x+0.75, -z+0.75, y'
   '-x+0.75, -z+0.25, y+0.5'
   '-x+0.25, -z+0.75, y+0.5'
   '-z+0.25, -y+0.25, x'
   '-z+0.75, -y+0.75, x'
   '-z+0.75, -y+0.25, x+0.5'
   '-z+0.25, -y+0.75, x+0.5'
   'x+0.25, -y, z+0.25'
   'x+0.75, -y+0.5, z+0.25'
   'x+0.75, -y, z+0.75'
   'x+0.25, -y+0.5, z+0.75'
   'z, -y+0.25, -x+0.25'
   'z+0.5, -y+0.75, -x+0.25'
   'z+0.5, -y+0.25, -x+0.75'
   'z, -y+0.75, -x+0.75'
   '-z, -x, -y'
   '-z+0.5, -x+0.5, -y'
   '-z+0.5, -x, -y+0.5'
   '-z, -x+0.5, -y+0.5'
   '-y, -z, -x'
   '-y+0.5, -z+0.5, -x'
   '-y+0.5, -z, -x+0.5'
   '-y, -z+0.5, -x+0.5'
   'y+0.25, z+0.25, -x'
   'y+0.75, z+0.75, -x'
   'y+0.75, z+0.25, -x+0.5'
   'y+0.25, z+0.75, -x+0.5'
   '-z, x+0.25, y+0.25'
   '-z+0.5, x+0.75, y+0.25'
   '-z+0.5, x+0.25, y+0.75'
   '-z, x+0.75, y+0.75'
   'y+0.25, -z, x+0.25'
   'y+0.75, -z+0.5, x+0.25'
   'y+0.75, -z, x+0.75'
   'y+0.25, -z+0.5, x+0.75'
   'z+0.25, x+0.25, -y'
   'z+0.75, x+0.75, -y'
   'z+0.75, x+0.25, -y+0.5'
   'z+0.25, x+0.75, -y+0.5'
   'z+0.25, -x, y+0.25'
   'z+0.75, -x+0.5, y+0.25'
   'z+0.75, -x, y+0.75'
   'z+0.25, -x+0.5, y+0.75'
   '-y, z+0.25, x+0.25'
   '-y+0.5, z+0.75, x+0.25'
   '-y+0.5, z+0.25, x+0.75'
   '-y, z+0.75, x+0.75'
   '-y+0.25, -x+0.25, z'
   '-y+0.75, -x+0.75, z'
   '-y+0.75, -x+0.25, z+0.5'
   '-y+0.25, -x+0.75, z+0.5'
   'y, x, z'
   'y+0.5, x+0.5, z'
   'y+0.5, x, z+0.5'
   'y, x+0.5, z+0.5'
   'x, -z+0.25, -y+0.25'
   'x+0.5, -z+0.75, -y+0.25'
   'x+0.5, -z+0.25, -y+0.75'
   'x, -z+0.75, -y+0.75'
   'x, z, y'
   'x+0.5, z+0.5, y'
   'x+0.5, z, y+0.5'
   'x, z+0.5, y+0.5'
   '-z+0.25, y, -x+0.25'
   '-z+0.75, y+0.5, -x+0.25'
   '-z+0.75, y, -x+0.75'
   '-z+0.25, y+0.5, -x+0.75'
   'z, y, x'
   'z+0.5, y+0.5, x'
   'z+0.5, y, x+0.5'
   'z, y+0.5, x+0.5'
_cell_length_a        8.09740
_cell_length_b        8.09740
_cell_length_c        8.09740
_cell_angle_alpha    90.0000
_cell_angle_beta     90.0000
_cell_angle_gamma    90.0000
_cell_formula_units_Z 8
loop_
_atom_site_label
_atom_site_fract_x
_atom_site_fract_y
_atom_site_fract_z
_atom_site_occupancy
_atom_site_B_iso_or_equiv
mn      0.000   0.500   0.000    0.88000    0.631
mn      0.125   0.125   0.125    0.15000    1.816
o      0.263   0.263   0.263    1.00000    1.342
mn      0.000   0.000   0.000    0.04000    3.710
mn      0.375   0.375   0.375    0.04400    0.394
_cell_measurement_wavelength    1.541874
_cell_measurement_radiation   'x-rays'
_exptl_crystal_density_diffrn    4.397000
loop_
_pd_peak_d_spacing
_pd_peak_intensity
     4.675036       1000.00
     2.862863         23.03
     2.441458        452.16
     2.337518         97.01
     2.024350        572.94
     1.857671         83.78
     1.652875          3.83
     1.558345        180.25
     1.431432        342.06
     1.368710        115.37
     1.349567          0.45
     1.280311          0.69
     1.234842         38.42
     1.220729         55.53
     1.168759         69.39
     1.133863         57.61
     1.082061          2.71
     1.054192         56.72
     1.012175         40.02
     0.989255          5.67
     0.981954          0.09
     0.954288          1.65
     0.935007         44.80
     0.928835         34.21
     0.905317        102.32
     0.888805         49.38
     0.883499          0.65
     0.863186          0.01
     0.848838         54.86
     0.826437        155.79
     0.813819         57.47
     0.794015          2.61
##############################################################################
###                            Comments                                    ###
##############################################################################
###   Diffraction pattern calculated by Match!. 
###   I/Ic calculated by Match!. 
###   Space group has been derived from given symmetry operations. 
##############################################################################


