##############################################################################
###               Crystal structure data exported by Match!                ###
##############################################################################
###                           Data published by:                           ###
###                                                                        ###
###               COD (Crystallography Open Database)
##############################################################################
data_9006170
_citation_journal_full    'Physics and Chemistry of Minerals'
_citation_journal_volume  '19'
_citation_page_first  '571'
_citation_page_last   '577'
_citation_year  '1993'
_citation_title  '57Fe-Moessbauer spectra, electronic and crystal structure of members of theCuS2-FeS2 solid solution series'
loop_
_publ_author_name
  'Schmid-Beurmann P'
  'Lottermoser W.'
_chemical_formula_sum  'Cu0.25 Fe0.75 S2'
_chemical_name_mineral  'Pyrite'
_symmetry_space_group_name_H-M 'P a -3'
_space_group_IT_number 205
_space_group_crystal_system 'cubic'
loop_
_symmetry_equiv_pos_as_xyz
   'x, y, z'
   'z, x, y'
   'y, z, x'
   '-y+0.5, -z, x+0.5'
   'z+0.5, -x+0.5, -y'
   '-y, z+0.5, -x+0.5'
   '-z+0.5, -x, y+0.5'
   '-z, x+0.5, -y+0.5'
   'y+0.5, -z+0.5, -x'
   '-x+0.5, -y, z+0.5'
   'x+0.5, -y+0.5, -z'
   '-x, y+0.5, -z+0.5'
   '-x, -y, -z'
   '-z, -x, -y'
   '-y, -z, -x'
   'y+0.5, z, -x+0.5'
   '-z+0.5, x+0.5, y'
   'y, -z+0.5, x+0.5'
   'z+0.5, x, -y+0.5'
   'z, -x+0.5, y+0.5'
   '-y+0.5, z+0.5, x'
   'x+0.5, y, -z+0.5'
   '-x+0.5, y+0.5, z'
   'x, -y+0.5, z+0.5'
_cell_length_a        5.72490
_cell_length_b        5.72490
_cell_length_c        5.72490
_cell_angle_alpha    90.0000
_cell_angle_beta     90.0000
_cell_angle_gamma    90.0000
loop_
_atom_site_label
_atom_site_fract_x
_atom_site_fract_y
_atom_site_fract_z
_atom_site_occupancy
_atom_site_B_iso_or_equiv
fe      0.000   0.000   0.000    0.75000    1.008
cu      0.000   0.000   0.000    0.25000    1.008
s      0.397   0.397   0.397    1.00000    0.970
_cell_measurement_wavelength    1.541874
_cell_measurement_radiation   'x-rays'
_exptl_crystal_density_diffrn    4.315000
loop_
_pd_peak_d_spacing
_pd_peak_intensity
     3.305272        232.89
     2.862450       1000.00
     2.560253        333.10
     2.337181        309.43
     2.024058        461.43
     1.908300         16.92
     1.726122        686.66
     1.652636        130.23
     1.587802        138.26
     1.530044        165.81
     1.431225          0.49
     1.388492         21.88
     1.349372         11.41
     1.313382        112.27
     1.280127         72.81
     1.249276         35.35
     1.220553         13.88
     1.168590         76.44
     1.144980         11.77
     1.122745         15.30
     1.101757        233.12
     1.063087         50.09
     1.045219         26.99
     1.012029         92.57
##############################################################################
###                            Comments                                    ###
##############################################################################
###   Diffraction pattern calculated by Match!. 
###   I/Ic calculated by Match!. 
##############################################################################


