##############################################################################
###               Crystal structure data exported by Match!                ###
##############################################################################
###                           Data published by:                           ###
###                                                                        ###
###               COD (Crystallography Open Database)
##############################################################################
data_1518100
_citation_journal_full    'Revue de Chimie Minerale'
_citation_journal_volume  '22'
_citation_page_first  '776'
_citation_page_last   '783'
_citation_year  '1985'
_citation_title  'Structure cristalline d'un nouveau phosphate de cuivre Cu3(PO4)2, H2O'
loop_
_publ_author_name
  'Riou A.'
  'Gerault Y.'
  'Cudennec Y.'
_chemical_formula_sum  'Cu3 H2 O9 P2'
_symmetry_space_group_name_H-M 'C 1 2/c 1'
_space_group_IT_number 15
_space_group_crystal_system 'monoclinic'
loop_
_symmetry_equiv_pos_as_xyz
   'x, y, z'
   'x+0.5, y+0.5, z'
   '-x, y, -z+0.5'
   '-x+0.5, y+0.5, -z+0.5'
   '-x, -y, -z'
   '-x+0.5, -y+0.5, -z'
   'x, -y, z+0.5'
   'x+0.5, -y+0.5, z+0.5'
_cell_length_a       17.79400
_cell_length_b        6.18900
_cell_length_c       12.18200
_cell_angle_alpha    90.0000
_cell_angle_beta    105.3800
_cell_angle_gamma    90.0000
_cell_formula_units_Z 8
loop_
_atom_site_label
_atom_site_fract_x
_atom_site_fract_y
_atom_site_fract_z
_atom_site_occupancy
_atom_site_B_iso_or_equiv
cu      0.250   0.088   0.092    1.00000    1.010
cu      0.113   0.095   0.683    1.00000    0.884
cu      0.092   0.682   0.861    1.00000    0.773
p      0.245   0.606   0.142    1.00000    0.402
p      0.072   0.176   0.903    1.00000    0.479
o      0.293   0.205   0.611    1.00000    0.605
o      0.519   0.148   0.644    1.00000    0.984
o      0.111   0.375   0.866    1.00000    0.750
o      0.747   0.406   0.429    1.00000    0.605
o      0.083   0.988   0.823    1.00000    0.708
o      0.607   0.383   0.527    1.00000    1.042
o      0.715   0.551   0.231    1.00000    0.813
o      0.339   0.167   0.379    1.00000    0.884
o      0.485   0.272   0.383    1.00000    0.947
h      0.978   0.540   0.865    1.00000    1.973
h      0.557   0.250   0.590    1.00000    7.895
_cell_measurement_wavelength    1.541874
_cell_measurement_radiation   'x-rays'
_cell_measurement_temperature    293.000000
_exptl_crystal_density_diffrn    4.092000
_exptl_crystal_density_meas      4.080000
loop_
_pd_peak_d_spacing
_pd_peak_intensity
     8.578381        508.04
     5.872870         68.57
     5.821792        263.60
     5.585490        430.58
     5.413674          2.95
     5.038890         20.18
     4.339169          8.12
     4.334190        140.52
     4.289191          0.03
     4.224480        163.96
     4.200254         70.58
     4.006673          1.44
     3.960211        470.25
     3.782816        175.93
     3.731253         26.13
     3.393382        349.00
     3.190676        278.90
     3.139301          0.82
     3.121402        260.62
     3.094814        342.27
     3.094500          0.78
     3.084216         49.46
     3.035813         19.60
     3.000978        104.39
     2.992392         82.68
     2.965518          0.38
     2.936435       1000.00
     2.910896        218.15
     2.890265          7.67
     2.886733        690.20
     2.859460        930.90
     2.792745          8.77
     2.767861        138.13
     2.758181         83.28
     2.737704         20.68
     2.722167         40.18
     2.706837         70.41
     2.703781         16.01
     2.662460        309.94
     2.620644         49.89
     2.576666         29.56
     2.535881        192.21
     2.531793         35.20
     2.519445        111.17
     2.509549         27.68
     2.451789          8.61
     2.449094         49.08
     2.443684        260.91
     2.427759         17.57
     2.394784         70.41
     2.389759        183.10
     2.379861        275.88
     2.347936         23.51
     2.338381          1.55
     2.326742        169.78
     2.279606          0.98
     2.278779          4.67
     2.249879          0.73
     2.245020          3.56
     2.241420         32.76
     2.222047         91.47
     2.212722         45.30
     2.212395         94.55
     2.188253          0.85
     2.169585         10.60
     2.167095         10.39
     2.152869         11.64
     2.144595        168.68
     2.140856          1.09
     2.140553         38.58
     2.130061         71.18
     2.113479         41.31
     2.112240          3.44
     2.101460         56.77
     2.100127         18.88
     2.073266          8.82
     2.063523          0.01
     2.048246         33.31
     2.028839        272.66
     2.028696        132.85
     2.022016         14.87
     2.007070          3.33
     2.003336         14.80
     2.000914         11.40
     1.991558         49.96
     1.980106         44.09
     1.977945         15.92
     1.967158        118.65
     1.957623          1.23
     1.953325         40.11
     1.942971        113.64
     1.940597         11.68
     1.923634          3.39
     1.915234          0.00
     1.914233        189.85
     1.908133         10.27
     1.898746          6.55
     1.894090         44.54
     1.891408          7.11
     1.890983         36.66
     1.887517          0.16
     1.884263          3.68
     1.880114          6.95
     1.873684         14.89
     1.871081         42.79
     1.865627          3.20
     1.865498          6.49
     1.861830         14.33
     1.861666         54.95
     1.847381         41.64
     1.839743         51.48
     1.838969          4.74
     1.821843         15.88
     1.821351         46.53
     1.807411          1.51
     1.807050          0.04
     1.804558          0.64
     1.801746         29.41
     1.799739         40.65
     1.795109         33.05
     1.791743         27.53
     1.787184         66.42
     1.784625          2.53
     1.778707          7.43
     1.776466         11.50
     1.768055          1.75
     1.762670         37.71
     1.760902         51.79
     1.760719          4.08
     1.757050         64.64
     1.752638          5.27
     1.743493         26.52
     1.734941         14.51
     1.716641         49.94
     1.715676          6.19
     1.714217        140.16
     1.707566          6.92
     1.705466          9.20
     1.700917          0.06
     1.696691          2.16
     1.690486         73.59
     1.689924          4.03
     1.689315         10.22
     1.685452         49.21
     1.681690          4.79
     1.679630         13.09
     1.674705         35.56
     1.674651          7.23
     1.671193          0.93
     1.657381          9.17
     1.655521         37.11
     1.655205          5.91
     1.654375          0.01
     1.652389         50.51
     1.634998         39.86
     1.632534          0.37
     1.627235          9.97
     1.625490        116.48
     1.617436          3.71
     1.615373         15.87
     1.600762          6.88
     1.595894         43.37
     1.595338          1.31
     1.595235         47.11
     1.593997         62.62
     1.585557          8.44
     1.578320          4.35
     1.575049         26.84
     1.569651          4.99
     1.568622        106.35
     1.566972         18.45
     1.565060         20.76
     1.560701         21.05
     1.559099         58.70
     1.555868          7.22
     1.551422         39.66
     1.551276          0.08
     1.547407         14.51
     1.547250         51.10
     1.545308         23.72
     1.542874         13.07
     1.542108          7.97
     1.540534         78.62
     1.534627          6.12
     1.533998         33.61
     1.533783         16.95
     1.530147          8.09
     1.524235        106.45
     1.522680         13.67
     1.520166         16.02
     1.519190         20.52
     1.517907          3.47
     1.515675          0.65
     1.515555          0.09
     1.513873          1.41
     1.512418          0.69
     1.512147         24.17
     1.511702          0.51
     1.507125          0.92
     1.502893         34.12
     1.501255          2.46
     1.501062         38.82
     1.500489         14.14
     1.496196          0.03
     1.491097          0.45
     1.490279         52.60
     1.489148          3.21
     1.482759          5.78
     1.482455         10.21
     1.480145          2.50
     1.478597         97.95
     1.475065         19.76
     1.474660          0.91
     1.468217          3.97
     1.465040         42.72
     1.463127          3.81
     1.462898          8.04
     1.460532         39.54
     1.459201          0.03
     1.457371          8.75
     1.456565         17.44
     1.455448          0.10
     1.455030         59.35
     1.453435          0.72
     1.453075         36.06
     1.446808        106.81
     1.446390          8.62
     1.445132         40.91
     1.444730          7.74
     1.443367          1.81
     1.442257         45.43
     1.439038          0.46
     1.438962         51.02
     1.438129         16.31
     1.434097          3.62
     1.433105          0.01
     1.430743          4.93
     1.429730         30.55
     1.428794          0.64
     1.427826         59.96
     1.427660         19.58
     1.426018         12.39
     1.423207         37.66
     1.423131         27.23
     1.411576          5.51
     1.408160          2.62
     1.406195          5.13
     1.401567          2.30
     1.400228         34.30
     1.400085          5.61
     1.397517          0.01
     1.397090         35.67
     1.396373          0.57
     1.394202          1.79
     1.393337          6.13
     1.387286          0.09
     1.384169          4.70
     1.384015          9.38
     1.383931          5.02
     1.381345          7.67
     1.380932          3.90
     1.379091          0.30
     1.378532          0.00
     1.374099          9.97
     1.371851         28.58
     1.371704         32.19
     1.368852         16.02
     1.364087          3.72
     1.362787          7.52
     1.361084          1.23
     1.360808         32.07
     1.359468          1.86
     1.353418          9.98
     1.351891         14.33
     1.346177         18.30
     1.338854          5.48
     1.338297          8.16
     1.336957          4.71
     1.335558          0.08
     1.335352         12.62
     1.335129          6.44
     1.332950         33.97
     1.332674         11.19
     1.331481          2.23
     1.331429          4.60
     1.331230          0.03
     1.329871         33.60
     1.328138         24.01
     1.326485         21.48
     1.326472         23.74
##############################################################################
###                            Comments                                    ###
##############################################################################
###   Diffraction pattern calculated by Match!. 
###   I/Ic calculated by Match!. 
##############################################################################


