##############################################################################
###               Crystal structure data exported by Match!                ###
##############################################################################
###                           Data published by:                           ###
###                                                                        ###
###               COD (Crystallography Open Database)
##############################################################################
data_9010316
_citation_journal_full    'American Mineralogist'
_citation_journal_volume  '92'
_citation_page_first  '1464'
_citation_page_last   '1473'
_citation_year  '2007'
_citation_title  'Jarosite - hydronium jarosite solid solution series withfull iron occupancy: Mineralogy and crystal chemistryLocality: syntheticSample: J'
loop_
_publ_author_name
  'Basciano L. C.'
  'Peterson R. C.'
_chemical_formula_sum  'Fe2.79 H6.13 K0.87 O14 S2'
_chemical_name_mineral  'Jarosite'
_symmetry_space_group_name_H-M 'R -3 m'
_space_group_IT_number 166
_space_group_crystal_system 'trigonal (hexagonal axes)'
loop_
_symmetry_equiv_pos_as_xyz
   'x, y, z'
   'x+0.66667, y+0.33333, z+0.33333'
   'x+0.33333, y+0.66667, z+0.66667'
   '-y, x-y, z'
   '-y+0.66667, x-y+0.33333, z+0.33333'
   '-y+0.33333, x-y+0.66667, z+0.66667'
   '-x+y, -x, z'
   '-x+y+0.66667, -x+0.33333, z+0.33333'
   '-x+y+0.33333, -x+0.66667, z+0.66667'
   'x-y, -y, -z'
   'x-y+0.66667, -y+0.33333, -z+0.33333'
   'x-y+0.33333, -y+0.66667, -z+0.66667'
   '-x, -x+y, -z'
   '-x+0.66667, -x+y+0.33333, -z+0.33333'
   '-x+0.33333, -x+y+0.66667, -z+0.66667'
   'y, x, -z'
   'y+0.66667, x+0.33333, -z+0.33333'
   'y+0.33333, x+0.66667, -z+0.66667'
   '-x, -y, -z'
   '-x+0.66667, -y+0.33333, -z+0.33333'
   '-x+0.33333, -y+0.66667, -z+0.66667'
   'y, -x+y, -z'
   'y+0.66667, -x+y+0.33333, -z+0.33333'
   'y+0.33333, -x+y+0.66667, -z+0.66667'
   'x-y, x, -z'
   'x-y+0.66667, x+0.33333, -z+0.33333'
   'x-y+0.33333, x+0.66667, -z+0.66667'
   '-x+y, y, z'
   '-x+y+0.66667, y+0.33333, z+0.33333'
   '-x+y+0.33333, y+0.66667, z+0.66667'
   'x, x-y, z'
   'x+0.66667, x-y+0.33333, z+0.33333'
   'x+0.33333, x-y+0.66667, z+0.66667'
   '-y, -x, z'
   '-y+0.66667, -x+0.33333, z+0.33333'
   '-y+0.33333, -x+0.66667, z+0.66667'
_cell_length_a        7.30630
_cell_length_b        7.30630
_cell_length_c       17.03410
_cell_angle_alpha    90.0000
_cell_angle_beta     90.0000
_cell_angle_gamma   120.0000
loop_
_atom_site_label
_atom_site_fract_x
_atom_site_fract_y
_atom_site_fract_z
_atom_site_occupancy
_atom_site_B_iso_or_equiv
k      0.000   0.000   0.000    0.87000    2.400
o      0.000   0.000   0.000    0.13000    2.400
fe      0.167   -0.167   -0.167    0.93000    2.700
s      0.000   0.000   0.311    1.00000    1.699
o      0.000   0.000   0.397    1.00000    3.500
o      0.223   -0.223   -0.057    1.00000    2.499
o      0.128   -0.128   0.136    1.00000    2.100
h      0.168   -0.168   0.102    1.00000    1.999
_cell_measurement_wavelength    1.541874
_cell_measurement_radiation   'x-rays'
_exptl_crystal_density_diffrn    3.063000
loop_
_pd_peak_d_spacing
_pd_peak_intensity
     5.931448        282.43
     5.678033        207.17
     5.079175        572.45
     3.653150        110.96
     3.532905         27.20
     3.110527        607.40
     3.072216       1000.00
     2.999659          8.70
     2.965724         95.93
     2.839017        157.09
     2.539587        188.99
     2.368320         14.74
     2.318271          4.37
     2.302499         22.84
     2.271266        273.29
     2.241674          0.01
     2.109147          1.00
     2.085225          0.10
     2.018063          2.28
     1.977149        288.48
     1.957402          3.86
     1.928861         63.68
     1.892678         36.52
     1.826575        272.50
     1.766453         34.59
     1.745677          1.52
     1.738818         29.76
     1.718809         24.69
     1.705699         15.72
     1.693058          0.99
     1.680524         22.33
     1.644848          0.70
     1.622544         24.36
     1.590294         38.44
     1.575083         24.59
     1.560097         30.11
     1.555263         39.97
     1.536108        121.25
     1.504163          0.33
     1.499829        141.93
     1.482862         40.26
     1.446372         13.49
     1.434742         17.27
     1.430979         19.38
     1.423388         23.34
     1.419508          2.48
     1.408659         26.61
     1.390877         23.01
     1.387448          0.13
     1.380761          7.22
     1.373983          5.16
     1.354234          3.25
     1.341661         62.74
     1.335441          0.67
     1.326270         13.95
     1.323130          0.25
     1.314331         12.40
     1.299852          0.00
     1.283092          9.63
     1.269794          1.78
     1.262010          0.00
     1.251746          0.85
     1.246655         39.86
     1.241694          1.81
     1.222296          9.90
     1.217717         15.74
     1.213060          0.14
     1.210593          1.02
     1.199404          0.47
     1.194832          0.21
     1.192839         13.97
     1.190644         14.71
     1.186290          0.03
     1.184160          5.21
     1.177635          6.56
     1.161132          0.00
     1.159135         17.92
     1.151249         20.55
     1.149139         23.41
     1.135633          2.16
     1.135607          0.05
     1.133921          0.07
     1.128291         21.63
     1.126459          4.25
     1.122744          1.24
     1.120837         12.34
     1.119116          0.03
     1.115473          8.61
     1.106581         10.09
     1.104852          0.20
     1.098016          0.98
     1.087858          2.99
     1.084443          5.77
     1.084420          1.17
     1.078044          4.33
     1.073203          0.32
     1.059060          0.21
     1.054574         10.06
     1.049936         12.22
     1.049874          0.15
     1.042612          6.09
     1.038291          0.06
     1.036842          2.43
     1.032552          1.81
     1.029689          2.87
     1.024072          0.37
     1.015835          0.02
     1.013202          1.04
     1.010514          0.17
     1.009087          0.10
     1.009031         12.41
##############################################################################
###                            Comments                                    ###
##############################################################################
###   Diffraction pattern calculated by Match!. 
###   I/Ic calculated by Match!. 
##############################################################################


