##############################################################################
###               Crystal structure data exported by Match!                ###
##############################################################################
###                           Data published by:                           ###
###                                                                        ###
###               COD (Crystallography Open Database)
##############################################################################
data_9006300
_citation_journal_full    'Physics and Chemistry of Minerals'
_citation_journal_volume  '21'
_citation_page_first  '269'
_citation_page_last   '284'
_citation_year  '1994'
_citation_title  'Framework silica structures generated using simulated annealingwith a potential energy function based on an H6Si2O7 moleculeSample: 17'
loop_
_publ_author_name
  'Boisen M. B.'
  'Gibbs G. V.'
  'Bukowinski M. S. T.'
_chemical_formula_sum  'O2 Si'
_chemical_name_common  'Silica'
_symmetry_space_group_name_H-M 'P 1'
_space_group_IT_number 1
_space_group_crystal_system 'triclinic'
loop_
_symmetry_equiv_pos_as_xyz
   'x, y, z'
_cell_length_a        5.55690
_cell_length_b        5.24630
_cell_length_c        5.97160
_cell_angle_alpha    88.5667
_cell_angle_beta    114.2259
_cell_angle_gamma    94.0951
loop_
_atom_site_label
_atom_site_fract_x
_atom_site_fract_y
_atom_site_fract_z
_atom_site_occupancy
_atom_site_B_iso_or_equiv
si      0.133   0.186   0.668    1.00000    1.000
si      0.677   0.074   0.194    1.00000    1.000
si      0.298   0.692   0.989    1.00000    1.000
si      0.187   0.263   0.208    1.00000    1.000
o      0.178   0.963   0.874    1.00000    1.000
o      0.613   0.767   0.142    1.00000    1.000
o      0.226   0.474   0.780    1.00000    1.000
o      0.873   0.171   0.062    1.00000    1.000
o      0.821   0.152   0.484    1.00000    1.000
o      0.382   0.183   0.080    1.00000    1.000
o      0.197   0.573   0.192    1.00000    1.000
o      0.288   0.155   0.490    1.00000    1.000
_cell_measurement_wavelength    1.541874
_cell_measurement_radiation   'x-rays'
_exptl_crystal_density_diffrn    2.520000
loop_
_pd_peak_d_spacing
_pd_peak_intensity
     5.445649        840.14
     5.232848       1000.00
     5.056118        954.95
     4.818138        767.95
     3.782092        180.76
     3.764452        419.51
     3.764311         83.90
     3.654976        263.64
     3.520021          8.81
     3.443462         12.91
     3.121961         10.01
     2.955551         19.80
     2.766421          9.59
     2.734675         54.65
     2.722824        132.90
     2.630485        135.32
     2.616424        301.56
     2.611853        128.88
     2.536683        172.26
     2.528059        295.38
     2.520755          5.65
     2.420084         92.07
     2.410755         13.17
     2.409069        222.39
     2.390088         16.76
     2.376946         17.65
     2.362695         21.06
     2.359149         11.59
     2.354012         35.06
     2.338601         15.60
     2.262610         10.48
     2.243750         21.84
     2.239725         66.50
     2.218784          2.76
     2.140271          2.58
     2.069352          3.01
     2.050341         14.62
     2.001154         12.03
     1.993079          0.19
     1.986843          8.92
     1.972096          1.91
     1.963127         36.10
     1.945102         23.38
     1.926741          9.54
     1.904297         22.69
     1.904242         32.33
     1.891046         53.73
     1.885153         28.66
     1.882226         29.11
     1.882156         57.97
     1.870666          0.30
     1.844533         22.46
     1.836911          1.09
     1.836518         23.24
     1.835858         39.62
     1.827488         20.24
     1.815216         17.14
     1.800797         14.49
     1.799654          5.50
     1.772956          3.44
     1.760010          8.26
     1.748595         12.74
     1.744283         14.38
     1.739882         26.81
     1.721731         18.18
     1.717474          2.85
     1.712465         11.51
     1.695429         15.22
     1.685373         13.43
     1.684111         48.05
     1.672406         52.17
     1.667972         20.02
     1.663429          9.87
     1.658877          9.87
     1.648144         33.56
     1.636572         37.98
     1.633328         15.00
     1.615843         15.58
     1.609621         12.67
     1.606046          2.28
     1.599097          4.23
     1.598732         25.46
     1.573714          4.95
     1.566417          2.24
     1.563318          5.72
     1.561754          4.50
     1.560981         49.02
     1.556417          4.57
     1.552170          9.23
     1.549071         14.64
     1.533301         12.67
     1.525141          0.72
     1.525113         31.11
     1.521645          4.30
     1.514257         21.75
     1.510259         11.69
     1.497782          4.26
     1.494907         31.09
     1.494735          3.20
     1.488147          6.60
     1.482953          0.90
     1.480259         36.54
     1.478088          7.13
     1.477776         79.47
     1.475049          5.91
     1.471905         13.43
     1.470673          0.66
     1.465613          1.15
     1.462218          0.68
     1.455052          4.31
     1.454716          5.00
     1.451758          8.93
     1.450863          5.51
     1.438076          1.20
     1.435005          3.90
     1.430368          3.71
     1.425113          2.52
     1.419853         10.55
     1.414393          9.58
     1.409641         23.25
     1.406733          1.52
     1.392703          0.37
     1.383211         61.19
     1.377354          6.21
     1.375485          1.55
     1.374362          0.91
     1.367872          5.42
     1.367338         16.15
     1.361412         14.29
     1.361376         16.79
     1.360138          5.85
     1.354569         10.09
     1.352127          7.13
     1.339798         13.94
     1.339760         14.89
     1.333686          3.61
     1.329391          1.58
     1.324806          3.98
     1.321955         11.97
     1.319069          5.67
     1.316040          0.34
     1.315243         28.45
     1.314421          3.61
     1.313749         17.64
     1.312470          8.07
     1.310108         12.98
     1.308212          6.63
     1.307599          4.67
     1.305926         23.00
     1.302490          1.39
     1.301831          4.01
     1.301785         14.63
     1.298157          6.24
     1.297249         20.98
     1.294216         13.83
     1.292943          6.96
     1.287623         14.69
     1.282020          2.29
     1.280577         17.05
     1.277047         10.12
     1.273387         18.83
     1.270662          2.97
     1.268341         22.70
     1.264029          5.57
     1.261854          1.75
     1.260697          5.07
     1.260377         13.34
     1.254817         16.74
     1.254770          5.44
     1.252442          7.26
     1.251442         10.90
     1.247944         13.80
     1.246394          8.31
     1.243850          7.08
     1.243484          0.38
     1.238235         19.82
     1.237726          3.81
     1.227283         18.78
     1.225998          2.00
     1.225813          1.47
     1.221873         10.67
     1.218325          8.72
     1.216496         17.42
     1.212923          1.66
     1.212063         11.42
     1.211649          1.01
     1.210302          4.56
     1.210042          4.43
     1.207229          6.37
     1.207206         16.41
     1.205378          4.70
     1.204534         11.57
     1.197198          0.82
     1.195044          2.23
     1.193627          5.33
     1.189579          3.94
     1.189475          0.76
     1.188473         17.59
     1.188202          5.97
     1.188025          0.05
     1.181450          1.10
     1.181348          7.54
     1.180236          1.44
     1.179574         16.84
     1.177006          8.41
     1.173340          8.32
     1.173207          3.21
     1.172160          9.64
     1.170481          9.98
     1.169301          2.69
     1.167747          0.26
     1.161995          0.70
     1.160615          5.42
     1.158800          4.85
     1.157106          4.83
     1.155735          3.50
     1.151469         17.08
     1.149442          2.26
     1.149268          3.54
     1.147821         13.68
     1.146974          1.15
     1.145320          4.40
     1.142250         11.56
     1.138512          0.11
     1.138408          8.52
     1.137193          5.05
     1.134429          4.79
     1.133266          1.75
     1.133182          8.05
     1.132395         13.49
     1.131305          6.98
     1.123570          6.88
     1.123324          3.26
     1.121875          4.60
     1.121865          3.33
     1.121611          5.30
     1.119863          2.30
     1.118921          0.95
     1.118369          4.69
     1.113264          0.15
     1.111542          2.67
     1.109392          4.49
     1.109034          2.12
     1.107565          2.95
     1.103454          1.03
     1.103425          2.30
     1.103329         14.36
     1.099615          9.53
     1.098232          8.62
     1.096990          4.04
     1.094690          8.36
     1.094356          4.04
     1.093847          0.51
     1.090594          0.07
     1.089130          2.28
     1.089124          2.84
     1.088934          2.04
     1.086473          1.88
     1.084424          2.64
     1.082146          0.00
     1.080488          3.38
     1.076552          0.85
     1.075680          0.82
     1.075251          0.45
     1.073580          2.69
     1.070770          0.06
     1.070525          2.01
     1.070135          2.81
     1.069859          0.65
     1.069450          1.23
     1.068727          2.46
     1.068490          4.71
     1.068188          0.85
     1.067284          3.74
     1.065278          8.21
     1.063895          2.93
     1.063693          5.27
     1.062242          1.21
     1.059068          1.67
     1.058944          7.78
     1.057799          5.18
     1.056519          0.76
     1.052754          2.63
     1.051300          1.18
     1.048171          0.68
     1.047196          6.01
     1.046570          0.15
     1.045343          0.53
     1.041527          1.43
     1.041309          0.46
     1.040654          0.81
     1.040100          5.84
     1.038768          0.70
     1.037613          0.24
     1.037469          2.61
     1.035642          0.18
     1.035635          0.61
     1.034840          3.98
     1.034676          0.81
     1.034327          5.22
     1.031246          2.14
     1.029392          0.89
     1.028661          1.65
     1.027840          3.54
     1.026864          2.80
     1.025506          1.78
     1.025170          0.74
     1.021279          4.69
     1.021219          1.51
     1.021073          7.58
     1.020074          0.60
     1.017477          0.29
     1.012159          5.84
     1.011467          0.49
     1.011224          0.00
     1.010277          0.01
     1.009082          2.38
     1.008869          1.34
     1.008723          3.73
     1.007180          1.16
##############################################################################
###                            Comments                                    ###
##############################################################################
###   Diffraction pattern calculated by Match!. 
###   I/Ic calculated by Match!. 
###   Space group has been derived from given symmetry operations. 
##############################################################################


