##############################################################################
###               Crystal structure data exported by Match!                ###
##############################################################################
###                           Data published by:                           ###
###                                                                        ###
###               COD (Crystallography Open Database)
##############################################################################
data_9010318
_citation_journal_full    'American Mineralogist'
_citation_journal_volume  '92'
_citation_page_first  '1464'
_citation_page_last   '1473'
_citation_year  '2007'
_citation_title  'Jarosite - hydronium jarosite solid solution series withfull iron occupancy: Mineralogy and crystal chemistryLocality: Rio Tonto, Huelva, SpainSample: 7-11-3-8Note: could not reproduce reported bond lengths'
loop_
_publ_author_name
  'Basciano L. C.'
  'Peterson R. C.'
_chemical_formula_sum  'Fe2.73 H6.16 K0.84 O14 S2'
_chemical_name_mineral  'Jarosite'
_symmetry_space_group_name_H-M 'R -3 m'
_space_group_IT_number 166
_space_group_crystal_system 'trigonal (hexagonal axes)'
loop_
_symmetry_equiv_pos_as_xyz
   'x, y, z'
   'x+0.66667, y+0.33333, z+0.33333'
   'x+0.33333, y+0.66667, z+0.66667'
   '-y, x-y, z'
   '-y+0.66667, x-y+0.33333, z+0.33333'
   '-y+0.33333, x-y+0.66667, z+0.66667'
   '-x+y, -x, z'
   '-x+y+0.66667, -x+0.33333, z+0.33333'
   '-x+y+0.33333, -x+0.66667, z+0.66667'
   'x-y, -y, -z'
   'x-y+0.66667, -y+0.33333, -z+0.33333'
   'x-y+0.33333, -y+0.66667, -z+0.66667'
   '-x, -x+y, -z'
   '-x+0.66667, -x+y+0.33333, -z+0.33333'
   '-x+0.33333, -x+y+0.66667, -z+0.66667'
   'y, x, -z'
   'y+0.66667, x+0.33333, -z+0.33333'
   'y+0.33333, x+0.66667, -z+0.66667'
   '-x, -y, -z'
   '-x+0.66667, -y+0.33333, -z+0.33333'
   '-x+0.33333, -y+0.66667, -z+0.66667'
   'y, -x+y, -z'
   'y+0.66667, -x+y+0.33333, -z+0.33333'
   'y+0.33333, -x+y+0.66667, -z+0.66667'
   'x-y, x, -z'
   'x-y+0.66667, x+0.33333, -z+0.33333'
   'x-y+0.33333, x+0.66667, -z+0.66667'
   '-x+y, y, z'
   '-x+y+0.66667, y+0.33333, z+0.33333'
   '-x+y+0.33333, y+0.66667, z+0.66667'
   'x, x-y, z'
   'x+0.66667, x-y+0.33333, z+0.33333'
   'x+0.33333, x-y+0.66667, z+0.66667'
   '-y, -x, z'
   '-y+0.66667, -x+0.33333, z+0.33333'
   '-y+0.33333, -x+0.66667, z+0.66667'
_cell_length_a        7.31280
_cell_length_b        7.31280
_cell_length_c       17.19730
_cell_angle_alpha    90.0000
_cell_angle_beta     90.0000
_cell_angle_gamma   120.0000
loop_
_atom_site_label
_atom_site_fract_x
_atom_site_fract_y
_atom_site_fract_z
_atom_site_occupancy
_atom_site_B_iso_or_equiv
k      0.000   0.000   0.000    0.84000    1.399
o      0.000   0.000   0.000    0.16000    1.399
fe      0.167   -0.167   -0.167    0.91000    1.620
s      0.000   0.000   0.311    1.00000    1.500
o      0.000   0.000   0.397    1.00000    1.399
o      0.222   -0.222   -0.057    1.00000    2.799
o      0.127   -0.127   0.137    1.00000    1.000
h      0.166   -0.166   0.102    1.00000    1.999
_cell_measurement_wavelength    1.541874
_cell_measurement_radiation   'x-rays'
_exptl_crystal_density_diffrn    3.000000
loop_
_pd_peak_d_spacing
_pd_peak_intensity
     5.942904        268.75
     5.732433        202.32
     5.099262        552.86
     3.656400        109.74
     3.557095         31.99
     3.114184        604.82
     3.082695       1000.00
     3.022480          7.06
     2.971452         97.21
     2.866217        168.06
     2.549631        185.22
     2.370820         11.37
     2.329598          3.32
     2.305992         25.06
     2.290454        288.14
     2.255756          0.02
     2.111024          0.80
     2.091382          0.08
     2.035592          1.96
     1.980968        308.83
     1.964711          5.64
     1.941058         71.66
     1.910811         41.63
     1.828200        303.07
     1.778548         39.12
     1.747387          2.55
     1.741766         34.36
     1.720939         27.44
     1.714452         18.46
     1.699754          0.45
     1.693502         24.50
     1.659629          0.74
     1.626012         26.77
     1.599374         37.18
     1.576600         32.79
     1.564299         37.09
     1.557092         46.90
     1.541347        137.39
     1.517826          0.17
     1.511240        170.13
     1.485726         46.54
     1.447748         15.93
     1.438206         18.56
     1.433108          3.52
     1.432599         20.70
     1.428850         27.74
     1.416655         30.25
     1.401841         27.15
     1.396647          0.36
     1.381989          8.50
     1.376434          8.68
     1.360163          4.04
     1.343498         74.86
     1.338393          0.12
     1.334281          0.31
     1.330843         16.89
     1.320972         19.38
     1.308937          0.09
     1.294921         13.81
     1.274815          3.97
     1.263193          0.01
     1.253092          1.29
     1.250581         50.65
     1.244842          1.66
     1.228819         11.17
     1.220633          2.33
     1.218800         18.05
     1.214985          0.18
     1.205904          0.37
     1.203750          0.21
     1.193950         19.18
     1.192152         16.00
     1.188581          0.00
     1.185698          7.82
     1.185410         10.03
     1.167807          0.05
     1.164799         26.77
     1.157820         30.66
     1.152996         24.74
     1.146487          0.07
     1.145227          3.55
     1.134973          0.28
     1.130358         25.08
     1.127878         18.49
     1.127630          5.15
     1.125799          1.78
     1.121607          0.04
     1.119805         10.55
     1.112445         12.77
     1.109844          0.16
     1.099620          1.38
     1.093969          2.52
     1.092875          8.76
     1.091270          2.94
     1.079931          7.80
     1.075953          0.94
     1.064277          0.37
     1.059678          0.08
     1.056702         15.13
     1.055512         15.07
     1.045691         11.63
     1.039248          0.11
     1.038061          3.00
     1.033601          1.36
     1.032191          3.78
     1.027565          0.81
     1.019852          0.04
     1.017796         18.61
     1.015158          0.40
     1.014103          1.05
     1.011902          0.02
     1.007493          0.43
     1.006638          3.95
##############################################################################
###                            Comments                                    ###
##############################################################################
###   Diffraction pattern calculated by Match!. 
###   I/Ic calculated by Match!. 
##############################################################################


