##############################################################################
###               Crystal structure data exported by Match!                ###
##############################################################################
###                           Data published by:                           ###
###                                                                        ###
###               COD (Crystallography Open Database)
##############################################################################
data_9012096
_citation_journal_full    'Mineralogical Journal'
_citation_journal_volume  '8'
_citation_page_first  '419'
_citation_page_last   '430'
_citation_year  '1977'
_citation_title  'The crystal structure of jarosite and svanbergiteLocality: Meadow Valley 1, Pinoche, Nevada, USA'
loop_
_publ_author_name
  'Kato T.'
  'Miura Y.'
_chemical_formula_sum  'Fe3 H6 K O14 S2'
_chemical_name_mineral  'Jarosite'
_symmetry_space_group_name_H-M 'R -3 m'
_space_group_IT_number 166
_space_group_crystal_system 'trigonal (hexagonal axes)'
loop_
_symmetry_equiv_pos_as_xyz
   'x, y, z'
   'x+0.66667, y+0.33333, z+0.33333'
   'x+0.33333, y+0.66667, z+0.66667'
   '-y, x-y, z'
   '-y+0.66667, x-y+0.33333, z+0.33333'
   '-y+0.33333, x-y+0.66667, z+0.66667'
   '-x+y, -x, z'
   '-x+y+0.66667, -x+0.33333, z+0.33333'
   '-x+y+0.33333, -x+0.66667, z+0.66667'
   'x-y, -y, -z'
   'x-y+0.66667, -y+0.33333, -z+0.33333'
   'x-y+0.33333, -y+0.66667, -z+0.66667'
   '-x, -x+y, -z'
   '-x+0.66667, -x+y+0.33333, -z+0.33333'
   '-x+0.33333, -x+y+0.66667, -z+0.66667'
   'y, x, -z'
   'y+0.66667, x+0.33333, -z+0.33333'
   'y+0.33333, x+0.66667, -z+0.66667'
   '-x, -y, -z'
   '-x+0.66667, -y+0.33333, -z+0.33333'
   '-x+0.33333, -y+0.66667, -z+0.66667'
   'y, -x+y, -z'
   'y+0.66667, -x+y+0.33333, -z+0.33333'
   'y+0.33333, -x+y+0.66667, -z+0.66667'
   'x-y, x, -z'
   'x-y+0.66667, x+0.33333, -z+0.33333'
   'x-y+0.33333, x+0.66667, -z+0.66667'
   '-x+y, y, z'
   '-x+y+0.66667, y+0.33333, z+0.33333'
   '-x+y+0.33333, y+0.66667, z+0.66667'
   'x, x-y, z'
   'x+0.66667, x-y+0.33333, z+0.33333'
   'x+0.33333, x-y+0.66667, z+0.66667'
   '-y, -x, z'
   '-y+0.66667, -x+0.33333, z+0.33333'
   '-y+0.33333, -x+0.66667, z+0.66667'
_cell_length_a        7.30400
_cell_length_b        7.30400
_cell_length_c       17.26800
_cell_angle_alpha    90.0000
_cell_angle_beta     90.0000
_cell_angle_gamma   120.0000
loop_
_atom_site_label
_atom_site_fract_x
_atom_site_fract_y
_atom_site_fract_z
_atom_site_occupancy
_atom_site_B_iso_or_equiv
k      0.000   0.000   0.000    1.00000    1.039
fe      0.167   -0.167   -0.167    1.00000    0.580
s      0.000   0.000   0.308    1.00000    0.580
o      0.000   0.000   0.393    1.00000    1.000
o      0.218   -0.218   -0.054    1.00000    1.230
o      0.125   -0.125   0.135    1.00000    0.799
_cell_measurement_wavelength    1.541874
_cell_measurement_radiation   'x-rays'
_exptl_crystal_density_diffrn    3.127000
loop_
_pd_peak_d_spacing
_pd_peak_intensity
     5.939498        389.81
     5.756000        195.53
     5.102607        582.73
     3.652000        105.19
     3.565723         30.59
     3.110975        688.35
     3.083696       1000.00
     3.031224          4.03
     2.969749        174.48
     2.878000        209.93
     2.551303        203.81
     2.368205         25.51
     2.332450         13.63
     2.304092         16.43
     2.298267        319.79
     2.260444          0.28
     2.108483          1.03
     2.091480          0.06
     2.042835          2.65
     1.979833        330.50
     1.965735         12.83
     1.945143         88.62
     1.918667         57.64
     1.826000        337.79
     1.782861         69.19
     1.745379          5.96
     1.740518         38.83
     1.719232         41.32
     1.716808         27.45
     1.700869          0.02
     1.698522         28.35
     1.665842          1.55
     1.625283         24.38
     1.602138         44.61
     1.574773         49.19
     1.564126         43.88
     1.555488         69.51
     1.541848        174.52
     1.523599          1.29
     1.515612        215.39
     1.484875         62.00
     1.446060         18.69
     1.439000          2.94
     1.437803         29.28
     1.431085         30.83
     1.429686         33.40
     1.419074         35.69
     1.406135         33.78
     1.399849          0.02
     1.380326          9.18
     1.375522          6.74
     1.361407          4.69
     1.342271         94.98
     1.338816          2.47
     1.337852          0.27
     1.331305         21.11
     1.322724         39.40
     1.312227          0.82
     1.299954         19.12
     1.275652          9.43
     1.261708          0.57
     1.251724          0.86
     1.250788         68.85
     1.244584          0.61
     1.230662         13.95
     1.224681          2.57
     1.217333         22.05
     1.214034          0.16
     1.210627          0.21
     1.204296          0.61
     1.192544         30.24
     1.190990         24.35
     1.188574          8.18
     1.187900          0.09
     1.184102         18.86
     1.169852          1.17
     1.166225         38.92
     1.161132         42.47
     1.152046         40.12
     1.151200          0.86
     1.149134          8.99
     1.133633          0.74
     1.130222         24.71
     1.129642         45.83
     1.126375          8.41
     1.125693          3.11
     1.121164          0.02
     1.120490         12.73
     1.114088         18.85
     1.110954          0.78
     1.098676          2.69
     1.097942          2.30
     1.096149         10.92
     1.091443          5.62
     1.079193         11.56
     1.075748          1.86
     1.065607          0.08
     1.063876          0.06
     1.059003         25.03
     1.054242         22.42
     1.045740         21.23
     1.038017          1.16
     1.036992          6.25
     1.032436          3.13
     1.031910          6.33
     1.027899          0.88
     1.021418         30.56
     1.020521          0.02
     1.017103          0.88
     1.012883          1.08
     1.010980          0.02
     1.010408          1.21
     1.009010          4.43
##############################################################################
###                            Comments                                    ###
##############################################################################
###   Diffraction pattern calculated by Match!. 
###   I/Ic calculated by Match!. 
##############################################################################


