##############################################################################
###               Crystal structure data exported by Match!                ###
##############################################################################
###                           Data published by:                           ###
###                                                                        ###
###               COD (Crystallography Open Database)
##############################################################################
data_1514241
_citation_journal_full    'Journal of the Physical Society of Japan'
_citation_journal_volume  '72'
_citation_page_first  '765'
_citation_page_last   '766'
_citation_year  '2003'
_citation_title  'High-pressure structural analysis of Mn3 O4'
loop_
_publ_author_name
  'Moritomo Y.'
  'Ohishi Y.'
  'Kuriki A.'
  'Nishibori E.'
  'Takata M.'
  'Sakata M.'
_chemical_formula_sum  'Mn3 O4'
_chemical_name_mineral  'Hausmannite'
_chemical_name_common  'Manganese(II,III) oxide'
_symmetry_space_group_name_H-M 'P b c m'
_space_group_IT_number 57
_space_group_crystal_system 'orthorhombic'
loop_
_symmetry_equiv_pos_as_xyz
   'x, y, z'
   '-x, -y, z+0.5'
   'x, -y+0.5, -z'
   '-x, y+0.5, -z+0.5'
   '-x, -y, -z'
   'x, y, -z+0.5'
   '-x, y+0.5, z'
   'x, -y+0.5, z+0.5'
_cell_length_a        2.89600
_cell_length_b        9.50810
_cell_length_c        9.25870
_cell_angle_alpha    90.0000
_cell_angle_beta     90.0000
_cell_angle_gamma    90.0000
_cell_formula_units_Z 4
loop_
_atom_site_label
_atom_site_fract_x
_atom_site_fract_y
_atom_site_fract_z
_atom_site_occupancy
_atom_site_B_iso_or_equiv
mn      0.708   0.371   0.250    1.00000    0.500
mn      0.228   0.132   0.084    1.00000    0.500
o      0.838   0.250   0.000    1.00000    0.500
o      0.248   0.173   0.250    1.00000    0.500
o      0.354   0.451   0.057    1.00000    0.500
_cell_measurement_wavelength    1.541874
_cell_measurement_radiation   'x-rays'
_exptl_crystal_density_diffrn    5.961000
loop_
_pd_peak_d_spacing
_pd_peak_intensity
     4.754050         18.13
     4.629350         88.34
     4.229123         12.25
     3.316654         15.38
     2.896000          4.30
     2.770346        172.47
     2.654083        628.90
     2.588602       1000.00
     2.473243         30.99
     2.455170         10.99
     2.389460         58.88
     2.377196        267.89
     2.377025        430.19
     2.314675         23.58
     2.302359         33.71
     2.181440         29.16
     2.137905        119.34
     2.114562         26.63
     2.083092        605.55
     2.081111          9.49
     2.061593          4.71
     1.940926        404.60
     1.929979          4.19
     1.883202         24.83
     1.837360          0.02
     1.808105          4.73
     1.802216          0.29
     1.776272        195.12
     1.757427         59.28
     1.725469          0.61
     1.707769          9.30
     1.690002          1.76
     1.658327          1.61
     1.589563         26.35
     1.584683          4.32
     1.578759          3.43
     1.570506         62.68
     1.566642         55.45
     1.561970          0.26
     1.543117        150.74
     1.539498         62.18
     1.503406         87.74
     1.499275          5.89
     1.482310         15.29
     1.467733          0.23
     1.460798         12.70
     1.448000        116.77
     1.439088         11.20
     1.431495          3.56
     1.414686          0.00
     1.413140         16.25
     1.409708        224.84
     1.399700        145.64
     1.390167          0.00
     1.385173          2.29
     1.381974          0.04
     1.374757          3.04
     1.369927          2.62
     1.367604          8.37
     1.361850          1.21
     1.348092         50.04
     1.331430          0.00
     1.327041          0.13
     1.317053          3.84
     1.310336         49.26
     1.309193          0.01
     1.307598          0.29
     1.304264          1.27
     1.303927          1.84
     1.298604         33.60
     1.294301        142.01
     1.274272          2.07
     1.267514          1.35
     1.266783          1.31
     1.263725        161.53
     1.251230          6.34
     1.236622         84.22
     1.229754          1.50
     1.227585          0.56
     1.225737          2.54
     1.219048         71.47
     1.217480          0.08
     1.211360          7.12
     1.206127         19.59
     1.203991          1.04
     1.194730          0.39
     1.193609         57.05
     1.191749          0.67
     1.188598          0.60
     1.188534         12.83
     1.188512         32.76
     1.181656          0.64
     1.178840          0.38
     1.166356          1.83
     1.157338          0.03
     1.155789          0.02
     1.152034         19.94
     1.151179          0.05
     1.147901          1.70
     1.144717          1.67
     1.143219          0.50
     1.142402         20.38
     1.132542          0.92
     1.124808         44.79
     1.124496          3.63
     1.117938          1.93
     1.111741          0.28
     1.109182          0.49
     1.109112          1.93
     1.107204          7.51
     1.105551          8.41
     1.099520          0.81
     1.091848          0.38
     1.090720          0.29
     1.085999         31.30
     1.079292          5.06
     1.074697          0.00
     1.073456          0.58
     1.073268          2.46
     1.069760          6.04
     1.068952          3.57
     1.067897         30.57
     1.061898          0.06
     1.057281          0.00
     1.055916         59.54
     1.049465         10.70
     1.048246          0.18
     1.041546          0.60
     1.040555          0.03
     1.035751          0.45
     1.032849          0.45
     1.031354          2.21
     1.030797          0.45
     1.028386          1.84
     1.024426         44.07
     1.017776         20.88
     1.016722         12.29
     1.015442          0.46
     1.010080         99.06
##############################################################################
###                            Comments                                    ###
##############################################################################
###   Diffraction pattern calculated by Match!. 
###   I/Ic calculated by Match!. 
###   Space group has been derived from given symmetry operations. 
##############################################################################


