##############################################################################
###               Crystal structure data exported by Match!                ###
##############################################################################
###                           Data published by:                           ###
###                                                                        ###
###               COD (Crystallography Open Database)
##############################################################################
data_9000807
_citation_journal_full    'American Mineralogist'
_citation_journal_volume  '66'
_citation_page_first  '324'
_citation_page_last   '333'
_citation_year  '1981'
_citation_title  'High-pressure crystal structure and compressibility of coesiteP = 46.0 kbar'
loop_
_publ_author_name
  'Levien L.'
  'Prewitt C. T.'
_chemical_formula_sum  'O2 Si'
_chemical_name_mineral  'Coesite'
_symmetry_space_group_name_H-M 'C 1 2/c 1'
_space_group_IT_number 15
_space_group_crystal_system 'monoclinic'
loop_
_symmetry_equiv_pos_as_xyz
   'x, y, z'
   'x+0.5, y+0.5, z'
   '-x, y, -z+0.5'
   '-x+0.5, y+0.5, -z+0.5'
   '-x, -y, -z'
   '-x+0.5, -y+0.5, -z'
   'x, -y, z+0.5'
   'x+0.5, -y+0.5, z+0.5'
_cell_length_a        7.00420
_cell_length_b       12.24600
_cell_length_c        7.11770
_cell_angle_alpha    90.0000
_cell_angle_beta    120.7000
_cell_angle_gamma    90.0000
loop_
_atom_site_label
_atom_site_fract_x
_atom_site_fract_y
_atom_site_fract_z
_atom_site_occupancy
_atom_site_B_iso_or_equiv
si      0.137   0.110   0.070    1.00000    0.379
si      0.508   0.158   0.544    1.00000    0.349
o      0.000   0.000   0.000    1.00000    1.030
o      0.500   0.109   0.750    1.00000    0.640
o      0.254   0.129   0.928    1.00000    0.570
o      0.318   0.101   0.325    1.00000    0.739
o      0.026   0.213   0.472    1.00000    0.799
_cell_measurement_wavelength    1.541874
_cell_measurement_radiation   'x-rays'
_cell_measurement_pressure       4600000.000000
_exptl_crystal_density_diffrn    3.041000
loop_
_pd_peak_d_spacing
_pd_peak_intensity
     6.123000         65.67
     5.485450          6.19
     5.404368          4.94
     4.328614         28.76
     3.417449         70.13
     3.398542        141.22
     3.378994        336.03
     3.358843        705.38
     3.067703        969.92
     3.061500       1000.00
     3.060085        790.00
     3.039450        816.12
     3.011289        181.58
     2.742725         12.01
     2.738036         63.89
     2.737277         95.52
     2.702184        110.09
     2.682498        109.84
     2.653873        278.57
     2.304707        123.46
     2.285692         72.37
     2.274659         13.26
     2.268770         27.41
     2.262386          3.05
     2.256277         86.09
     2.245134         63.09
     2.176912         27.59
     2.166997         44.79
     2.164307         22.54
     2.146835         48.56
     2.136602          7.62
     2.041000          0.33
     2.021312         22.95
     2.017582          4.36
     2.017199          8.29
     2.005317        112.66
     2.005140         36.12
     2.000883          4.68
     1.993100          0.52
     1.981082         34.38
     1.936173          0.02
     1.935457          0.30
     1.853644          8.32
     1.828567         15.27
     1.828483        101.58
     1.801456        114.15
     1.779418        158.91
     1.763284        118.01
     1.750644          2.35
     1.746397          0.02
     1.708725          0.10
     1.699271          7.89
     1.697973         61.07
     1.697671         37.45
     1.691440          8.88
     1.689497         83.77
     1.688883          8.25
     1.686823         16.74
     1.683198         26.72
     1.682374         15.72
     1.679987         48.33
     1.679422         29.98
     1.677390          0.61
     1.674896          4.79
     1.672194        129.30
     1.670322          1.21
     1.656115          7.82
     1.631597        171.55
     1.614416          6.87
     1.575482          2.13
     1.573414         12.68
     1.569993         42.33
     1.569812          0.98
     1.564193         34.27
     1.559894         43.93
     1.552609         36.00
     1.546817         16.68
     1.538434         48.25
     1.535012          0.00
     1.533852         37.40
     1.530750         45.75
     1.530043         12.74
     1.520680         12.25
     1.519725         20.44
     1.516944         69.88
     1.505644         28.06
     1.487877          0.10
     1.485005         28.98
     1.484400          3.08
     1.481423          4.02
     1.468528          2.11
     1.462089         15.02
     1.442871          0.13
     1.404828         12.94
     1.402564         22.18
     1.400871          1.82
     1.399417          1.23
     1.398245         10.53
     1.392858          6.37
     1.391429         14.52
     1.389879         27.07
     1.388804          1.15
     1.385872         15.76
     1.380605          1.73
     1.379234         17.90
     1.377026          0.69
     1.376463         37.74
     1.371362          6.14
     1.369698          2.12
     1.369018          7.27
     1.368638          2.07
     1.364564          5.49
     1.356507          1.67
     1.351092          0.04
     1.341249          1.01
     1.336247         16.51
     1.332543        134.83
     1.329403         52.27
     1.328797         87.42
     1.328392          1.94
     1.327216         71.32
     1.326937         53.72
     1.325659         41.66
     1.321972         12.94
     1.319903          2.26
     1.318907         31.39
     1.314165         57.16
     1.311767         44.21
     1.311724         73.90
     1.308446          3.67
     1.302965         70.14
     1.294165         12.11
     1.285332         65.66
     1.283118          4.43
     1.279203         24.36
     1.273587         45.21
     1.270941         93.60
     1.270873          8.07
     1.267858          6.37
     1.267573         56.27
     1.266468          4.28
     1.264349          9.14
     1.252500          0.15
     1.229793          0.40
     1.226186          2.73
     1.224676          4.44
     1.224600          6.28
     1.224396         57.14
     1.224238          7.41
     1.222053          0.01
     1.221087         12.52
     1.220967         16.78
     1.214735          5.39
     1.212057          1.09
     1.211632         43.59
     1.208529          0.81
     1.207964          0.04
     1.207609          7.82
     1.205747         41.76
     1.200798          0.46
     1.200286          9.54
     1.198731         18.75
     1.180751         34.91
     1.175897         30.61
     1.175134          3.35
     1.174546          1.72
     1.171348         28.20
     1.171158         27.39
     1.170497         45.53
     1.168933          0.20
     1.168614         32.60
     1.164542          0.41
     1.163289          5.94
     1.161884          0.39
     1.160447         14.88
     1.159238          0.23
     1.159038          0.01
     1.155937          1.20
     1.155269         29.51
     1.152354          4.90
     1.151140         15.54
     1.151006          0.06
     1.149479          0.19
     1.147788          2.07
     1.146456         16.65
     1.144034          0.87
     1.142846          0.23
     1.141922          1.32
     1.139955         11.95
     1.139150          4.36
     1.137330          2.06
     1.136940          1.04
     1.136560          5.25
     1.135384          0.54
     1.134385          4.97
     1.132847          0.97
     1.131193          1.35
     1.129547          0.87
     1.128138          1.37
     1.126331          4.92
     1.122567          2.24
     1.121848         40.43
     1.120698          2.79
     1.119614         10.34
     1.105204         12.48
     1.100323          0.24
     1.099779         19.71
     1.098212          0.15
     1.097090          7.31
     1.095386          3.12
     1.094727          0.10
     1.090966         12.51
     1.090612          3.02
     1.090541          2.42
     1.088456          0.03
     1.087433          2.20
     1.087368         18.10
     1.086009         13.40
     1.083907          7.02
     1.083499          0.31
     1.082154          0.07
     1.081122         15.46
     1.080874         13.75
     1.078826          5.29
     1.077623          0.27
     1.077379          2.81
     1.074739          3.05
     1.073417          0.49
     1.069919          1.05
     1.068301          0.20
     1.067638         24.13
     1.066424          3.31
     1.066202         22.81
     1.064501          0.83
     1.064196         20.78
     1.064045         11.98
     1.063559         21.48
     1.062500          3.39
     1.060697          7.14
     1.060530          6.78
     1.059353          0.33
     1.058640          0.48
     1.057898          0.03
     1.055230          0.74
     1.051655          1.07
     1.051505          2.54
     1.049957          7.16
     1.049729          2.97
     1.045719          2.00
     1.038368         22.26
     1.033855          0.00
     1.029485          6.95
     1.022568          0.03
     1.020784          0.10
     1.020500          0.06
     1.020028          3.74
     1.013150          4.29
     1.011477          0.05
     1.010656          0.11
     1.009518         17.68
     1.009493          6.63
     1.008791          3.39
     1.008599          0.12
     1.007075          0.50
     1.006602          5.65
##############################################################################
###                            Comments                                    ###
##############################################################################
###   Diffraction pattern calculated by Match!. 
###   I/Ic calculated by Match!. 
###   Space group has been derived from given symmetry operations. 
##############################################################################


