##############################################################################
###               Crystal structure data exported by Match!                ###
##############################################################################
###                           Data published by:                           ###
###                                                                        ###
###               COD (Crystallography Open Database)
##############################################################################
data_4124078
_citation_journal_full    'Journal of the American Chemical Society'
_citation_journal_volume  '126'
_citation_page_first  '9769'
_citation_page_last   '9775'
_citation_year  '2004'
_citation_title  'Chemical evaluation of hypothetical uninodal zeolites'
loop_
_publ_author_name
  'Foster M.D.'
  'Friedrichs O.D.'
  'Klinowski J.'
  'Bell R.G.'
  'Paz F.A.A.'
_chemical_formula_sum  'O2 Si'
_chemical_name_common  'Silica'
_symmetry_space_group_name_H-M 'F d d d'
_space_group_IT_number 70
_space_group_crystal_system 'orthorhombic'
loop_
_symmetry_equiv_pos_as_xyz
   'x, y, z'
   'x+0.5, y+0.5, z'
   'x+0.5, y, z+0.5'
   'x, y+0.5, z+0.5'
   '-x+0.25, -y+0.25, -z+0.25'
   '-x+0.75, -y+0.75, -z+0.25'
   '-x+0.75, -y+0.25, -z+0.75'
   '-x+0.25, -y+0.75, -z+0.75'
   '-x, -y, z'
   '-x+0.5, -y+0.5, z'
   '-x+0.5, -y, z+0.5'
   '-x, -y+0.5, z+0.5'
   'x, -y, -z'
   'x+0.5, -y+0.5, -z'
   'x+0.5, -y, -z+0.5'
   'x, -y+0.5, -z+0.5'
   '-x, y, -z'
   '-x+0.5, y+0.5, -z'
   '-x+0.5, y, -z+0.5'
   '-x, y+0.5, -z+0.5'
   'x+0.25, y+0.25, -z+0.25'
   'x+0.75, y+0.75, -z+0.25'
   'x+0.75, y+0.25, -z+0.75'
   'x+0.25, y+0.75, -z+0.75'
   '-x+0.25, y+0.25, z+0.25'
   '-x+0.75, y+0.75, z+0.25'
   '-x+0.75, y+0.25, z+0.75'
   '-x+0.25, y+0.75, z+0.75'
   'x+0.25, -y+0.25, z+0.25'
   'x+0.75, -y+0.75, z+0.25'
   'x+0.75, -y+0.25, z+0.75'
   'x+0.25, -y+0.75, z+0.75'
_cell_length_a        4.71235
_cell_length_b        9.35719
_cell_length_c       14.53399
_cell_angle_alpha    90.0000
_cell_angle_beta     90.0000
_cell_angle_gamma    90.0000
_cell_formula_units_Z 16
loop_
_atom_site_label
_atom_site_fract_x
_atom_site_fract_y
_atom_site_fract_z
_atom_site_occupancy
_atom_site_B_iso_or_equiv
o      0.250   0.564   0.250    1.00000    1.000
o      0.625   0.125   0.625    1.00000    1.000
si      0.750   0.250   0.563    1.00000    1.000
_cell_measurement_wavelength    1.541874
_cell_measurement_radiation   'x-rays'
_exptl_crystal_density_diffrn    2.490000
loop_
_pd_peak_d_spacing
_pd_peak_intensity
     4.042672        263.56
     3.933820        911.04
     3.633497          0.17
     3.177251       1000.00
     2.560263         55.34
     2.391797         12.75
     2.339298         12.34
     2.291573          0.00
     2.241310          2.36
     2.151113         13.82
     2.104382         40.76
     2.021336         55.37
     1.966910         20.50
     1.938286        259.14
     1.862031          2.23
     1.821018         19.09
     1.816749          0.05
     1.726977          9.77
     1.688972         75.17
     1.636999         46.48
     1.622663          2.29
     1.618378         43.87
     1.588625         18.47
     1.540383          0.63
     1.524814          4.00
     1.507712          2.63
     1.492519         21.08
     1.475513         18.44
     1.434858         58.37
     1.396431         30.54
     1.387970          3.00
     1.375174         77.80
     1.371952          2.47
     1.369359         22.83
     1.367091         24.65
     1.347557         14.57
     1.333300         22.03
     1.311273         21.17
     1.300468         32.17
     1.280997         11.68
     1.280131          6.22
     1.263464         16.77
     1.260612          3.85
     1.242956         18.60
     1.241609          9.91
     1.236991         17.71
     1.224407          2.40
     1.211166          0.04
     1.199043          1.29
     1.195898          4.44
     1.183439         15.12
     1.178087          6.35
     1.177988         32.90
     1.176049          7.14
     1.169649          6.21
     1.167675         30.56
     1.162438          1.19
     1.145787          3.63
     1.128566         20.59
     1.120655          6.18
     1.117916          7.88
     1.113384          6.77
     1.111681          0.83
     1.093520          8.22
     1.093282          0.03
     1.080527         16.40
     1.075557          1.81
     1.063251          8.17
     1.059084          0.35
     1.057466          8.98
     1.052191         16.31
     1.052120          6.67
     1.049720          0.64
     1.040997          1.48
     1.036942         19.49
     1.033277          3.68
     1.027129          0.60
     1.015524          0.46
     1.013492          8.32
     1.012803          5.48
     1.010668          2.73
##############################################################################
###                            Comments                                    ###
##############################################################################
###   Diffraction pattern calculated by Match!. 
###   I/Ic calculated by Match!. 
###   Space group has been derived from given symmetry operations. 
##############################################################################


