##############################################################################
###               Crystal structure data exported by Match!                ###
##############################################################################
###                           Data published by:                           ###
###                                                                        ###
###               COD (Crystallography Open Database)
##############################################################################
data_9006292
_citation_journal_full    'Physics and Chemistry of Minerals'
_citation_journal_volume  '21'
_citation_page_first  '269'
_citation_page_last   '284'
_citation_year  '1994'
_citation_title  'Framework silica structures generated using simulated annealingwith a potential energy function based on an H6Si2O7 moleculeSample: 9'
loop_
_publ_author_name
  'Boisen M. B.'
  'Gibbs G. V.'
  'Bukowinski M. S. T.'
_chemical_formula_sum  'O2 Si'
_chemical_name_common  'Silica'
_symmetry_space_group_name_H-M 'C 1 2/c 1'
_space_group_IT_number 15
_space_group_crystal_system 'monoclinic'
loop_
_symmetry_equiv_pos_as_xyz
   'x, y, z'
   'x+0.5, y+0.5, z'
   '-x, y, -z+0.5'
   '-x+0.5, y+0.5, -z+0.5'
   '-x, -y, -z'
   '-x+0.5, -y+0.5, -z'
   'x, -y, z+0.5'
   'x+0.5, -y+0.5, z+0.5'
_cell_length_a       11.10320
_cell_length_b        7.89890
_cell_length_c        4.97710
_cell_angle_alpha    90.0000
_cell_angle_beta    112.2654
_cell_angle_gamma    90.0000
loop_
_atom_site_label
_atom_site_fract_x
_atom_site_fract_y
_atom_site_fract_z
_atom_site_occupancy
_atom_site_B_iso_or_equiv
si      0.646   0.609   0.830    1.00000    1.000
o      0.000   0.817   0.250    1.00000    1.000
o      0.834   0.943   0.465    1.00000    1.000
o      0.250   0.750   0.500    1.00000    1.000
_cell_measurement_wavelength    1.541874
_cell_measurement_radiation   'x-rays'
_exptl_crystal_density_diffrn    1.976000
loop_
_pd_peak_d_spacing
_pd_peak_intensity
     6.262389       1000.00
     5.137665        120.32
     4.202451        469.62
     3.949450          4.82
     3.358690         18.11
     3.156437         45.41
     3.142402        272.82
     3.131195          6.00
     2.998180        241.24
     2.922176          1.19
     2.568833         19.10
     2.550563         18.87
     2.481590         83.95
     2.349502          2.75
     2.343911         16.49
     2.325937          0.44
     2.303000          0.01
     2.271884         16.05
     2.256242          1.13
     2.243142         17.73
     2.171902          5.50
     2.153400         45.80
     2.147355         38.75
     2.132551          7.01
     2.101225          4.80
     2.091562         12.52
     2.087463          0.56
     2.015926          2.10
     1.989468          1.37
     1.988856          2.81
     1.974725          8.48
     1.903115          2.39
     1.885658         15.38
     1.855435          0.00
     1.843257          0.30
     1.814955          1.40
     1.797682         14.04
     1.795359         27.06
     1.762367          0.07
     1.755035         51.70
     1.749192         12.15
     1.721653          0.43
     1.712555         20.28
     1.694895          5.01
     1.679345          2.42
     1.675667          7.35
     1.636303          0.58
     1.634550          0.22
     1.622208          0.13
     1.620021          0.09
     1.619258         14.00
     1.609804          0.30
     1.599088          1.87
     1.578218         12.23
     1.577814          6.55
     1.571201          6.95
     1.565597         19.02
     1.562770          0.63
     1.561434          3.77
     1.551973          3.86
     1.545199          3.22
     1.524721         36.29
     1.512964         11.63
     1.505362          3.78
     1.499902          0.80
     1.499090         11.02
     1.494476          3.69
     1.461489          0.00
     1.461088          5.61
     1.453545          0.02
     1.443195         17.61
     1.435870          1.14
     1.434542         20.21
     1.431007          0.03
     1.417397          0.57
     1.402726          0.41
     1.400817          0.83
     1.394683          1.64
     1.387868          9.06
     1.373725         13.05
     1.370653          0.13
     1.362695          6.08
     1.359453          5.38
     1.356569          5.77
     1.352197         14.29
     1.350512         15.18
     1.350275          0.00
     1.330285         13.27
     1.328406          5.14
     1.326743          3.56
     1.321380          4.70
     1.316483          3.77
     1.314874          0.67
     1.311821          0.86
     1.302645          5.29
     1.297703          1.19
     1.293794          6.59
     1.289418          1.26
     1.288173          0.78
     1.286128          4.16
     1.284416          2.57
     1.282114          2.83
     1.275282          3.83
     1.267665          7.43
     1.267469          3.04
     1.265795          2.39
     1.263924         15.26
     1.259892          1.49
     1.259156          2.39
     1.252478          0.61
     1.250649          9.32
     1.249935          2.78
     1.240795          0.02
     1.227844          1.41
     1.227231          5.03
     1.225451          8.84
     1.222063          0.34
     1.221447          1.12
     1.212087          1.39
     1.209536          5.76
     1.207158          1.37
     1.206700          3.69
     1.200354          6.38
     1.198381          0.00
     1.186599         11.50
     1.186060          1.70
     1.185429          9.61
     1.183750          2.94
     1.182106          4.45
     1.177165          3.44
     1.174751          0.22
     1.171955          0.94
     1.171590          2.25
     1.170661          3.22
     1.167677          3.43
     1.162968          1.29
     1.161997          0.42
     1.151500          0.15
     1.143575          2.92
     1.142924          0.39
     1.142540          0.37
     1.141418          3.78
     1.139205          4.63
     1.135942          0.02
     1.135840          2.49
     1.131084          0.32
     1.129961          1.96
     1.128121          0.95
     1.127967          0.23
     1.127697          0.82
     1.125812          2.73
     1.124003          2.43
     1.121671          0.14
     1.121571          7.36
     1.119563          0.01
     1.118148          3.78
     1.109907          0.48
     1.108069          0.32
     1.107957          2.99
     1.107715          0.09
     1.107398          0.53
     1.105472          0.27
     1.103292          0.87
     1.100334          6.33
     1.098196          0.72
     1.096315          3.72
     1.091276          0.28
     1.088682          3.33
     1.088599          0.23
     1.087535          0.70
     1.085951          3.08
     1.079604          1.02
     1.076700          0.51
     1.075343          3.50
     1.073677          0.59
     1.072714          0.00
     1.072302          4.45
     1.071749          0.22
     1.066275          0.08
     1.064542          0.03
     1.058320          0.61
     1.055114          0.69
     1.052603          1.35
     1.052146          6.28
     1.050613          0.15
     1.047467          0.17
     1.047090          0.04
     1.045878          0.10
     1.045781          0.37
     1.044159          4.95
     1.043732          0.33
     1.042486          2.93
     1.042341          5.47
     1.029763          0.56
     1.027533          3.03
     1.025255          0.35
     1.024490          0.13
     1.023227          0.32
     1.020293          0.83
     1.020110          1.77
     1.018995          0.44
     1.017572          3.83
     1.016759          2.03
     1.014332          0.19
     1.013030          1.18
     1.011139          2.54
     1.007963          0.57
     1.007009          1.09
##############################################################################
###                            Comments                                    ###
##############################################################################
###   Diffraction pattern calculated by Match!. 
###   I/Ic calculated by Match!. 
###   Space group has been derived from given symmetry operations. 
##############################################################################


