##############################################################################
###               Crystal structure data exported by Match!                ###
##############################################################################
###                           Data published by:                           ###
###                                                                        ###
###               COD (Crystallography Open Database)
##############################################################################
data_2300375
_citation_journal_full    'Journal of Applied Crystallography'
_citation_journal_volume  '46(1)'
_citation_page_first  '14'
_citation_page_last   '24'
_citation_year  '2013'
_citation_title  'High-pressure phase transitions and equations of state in NiSi. III. Anew high-pressure phase of NiSi'
loop_
_publ_author_name
  'Wood Ian G.'
  'Ahmed Jabraan'
  'Dobson David P.'
  'Vocadlo Lidunka'
_chemical_formula_sum  'Al2 O3'
_chemical_name_common  'Alumina'
_symmetry_space_group_name_H-M 'R -3 c'
_space_group_IT_number 167
_space_group_crystal_system 'trigonal (hexagonal axes)'
loop_
_symmetry_equiv_pos_as_xyz
   'x, y, z'
   'x+0.66667, y+0.33333, z+0.33333'
   'x+0.33333, y+0.66667, z+0.66667'
   '-y, x-y, z'
   '-y+0.66667, x-y+0.33333, z+0.33333'
   '-y+0.33333, x-y+0.66667, z+0.66667'
   '-x+y, -x, z'
   '-x+y+0.66667, -x+0.33333, z+0.33333'
   '-x+y+0.33333, -x+0.66667, z+0.66667'
   'x-y, -y, -z+0.5'
   'x-y+0.66667, -y+0.33333, -z+0.83333'
   'x-y+0.33333, -y+0.66667, -z+0.16667'
   '-x, -x+y, -z+0.5'
   '-x+0.66667, -x+y+0.33333, -z+0.83333'
   '-x+0.33333, -x+y+0.66667, -z+0.16667'
   'y, x, -z+0.5'
   'y+0.66667, x+0.33333, -z+0.83333'
   'y+0.33333, x+0.66667, -z+0.16667'
   '-x, -y, -z'
   '-x+0.66667, -y+0.33333, -z+0.33333'
   '-x+0.33333, -y+0.66667, -z+0.66667'
   'y, -x+y, -z'
   'y+0.66667, -x+y+0.33333, -z+0.33333'
   'y+0.33333, -x+y+0.66667, -z+0.66667'
   'x-y, x, -z'
   'x-y+0.66667, x+0.33333, -z+0.33333'
   'x-y+0.33333, x+0.66667, -z+0.66667'
   '-x+y, y, z+0.5'
   '-x+y+0.66667, y+0.33333, z+0.83333'
   '-x+y+0.33333, y+0.66667, z+0.16667'
   'x, x-y, z+0.5'
   'x+0.66667, x-y+0.33333, z+0.83333'
   'x+0.33333, x-y+0.66667, z+0.16667'
   '-y, -x, z+0.5'
   '-y+0.66667, -x+0.33333, z+0.83333'
   '-y+0.33333, -x+0.66667, z+0.16667'
_cell_length_a        4.76029
_cell_length_b        4.76029
_cell_length_c       12.99200
_cell_angle_alpha    90.0000
_cell_angle_beta     90.0000
_cell_angle_gamma   120.0000
_cell_formula_units_Z 6
loop_
_atom_site_label
_atom_site_fract_x
_atom_site_fract_y
_atom_site_fract_z
_atom_site_occupancy
_atom_site_B_iso_or_equiv
al      0.000   0.000   0.352    1.00000    0.266
o      0.694   0.000   0.250    1.00000    0.289
_cell_measurement_wavelength    1.541874
_cell_measurement_radiation   'x-rays'
_exptl_crystal_density_diffrn    3.984000
loop_
_pd_peak_d_spacing
_pd_peak_intensity
     3.480758        618.19
     2.551294        967.69
     2.380145        444.91
     2.165333          5.10
     2.085871       1000.00
     1.964726         14.52
     1.740379        499.16
     1.601693        995.58
     1.547084         25.89
     1.515191         32.76
     1.510987         75.77
     1.404873        394.10
     1.374177        610.39
     1.336318         13.00
     1.275647         15.14
     1.239123        175.44
     1.234286         95.56
     1.193374          7.77
     1.190073         67.69
     1.160253          7.28
     1.147533         57.37
     1.138982          3.07
     1.126074         41.50
     1.124345         29.79
     1.099097         82.42
     1.082667         20.26
     1.078510         98.08
     1.046544          2.29
     1.042936        199.38
     1.017901         26.58
##############################################################################
###                            Comments                                    ###
##############################################################################
###   Diffraction pattern calculated by Match!. 
###   I/Ic calculated by Match!. 
##############################################################################


