##############################################################################
###               Crystal structure data exported by Match!                ###
##############################################################################
###                           Data published by:                           ###
###                                                                        ###
###               COD (Crystallography Open Database)
##############################################################################
data_2310814
_citation_journal_full    'Acta Crystallographica (1,1948-23,1967)'
_citation_journal_volume  '22'
_citation_page_first  '808'
_citation_page_last   '812'
_citation_year  '1967'
_citation_title  'Polytype families in zinc sulfide crystals'
loop_
_publ_author_name
  'Mardix S.'
  'Alexander E.'
  'Brafman O.'
  'Steinberger I.T.'
_chemical_formula_sum  'S Zn'
_chemical_name_common  'Zinc sulfide'
_symmetry_space_group_name_H-M 'R 3 m'
_space_group_IT_number 160
_space_group_crystal_system 'trigonal (hexagonal axes)'
loop_
_symmetry_equiv_pos_as_xyz
   'x, y, z'
   'x+0.66667, y+0.33333, z+0.33333'
   'x+0.33333, y+0.66667, z+0.66667'
   '-y, x-y, z'
   '-y+0.66667, x-y+0.33333, z+0.33333'
   '-y+0.33333, x-y+0.66667, z+0.66667'
   '-x+y, -x, z'
   '-x+y+0.66667, -x+0.33333, z+0.33333'
   '-x+y+0.33333, -x+0.66667, z+0.66667'
   '-x+y, y, z'
   '-x+y+0.66667, y+0.33333, z+0.33333'
   '-x+y+0.33333, y+0.66667, z+0.66667'
   'x, x-y, z'
   'x+0.66667, x-y+0.33333, z+0.33333'
   'x+0.33333, x-y+0.66667, z+0.66667'
   '-y, -x, z'
   '-y+0.66667, -x+0.33333, z+0.33333'
   '-y+0.33333, -x+0.66667, z+0.66667'
_cell_length_a        3.82000
_cell_length_b        3.82000
_cell_length_c      187.80000
_cell_angle_alpha    90.0000
_cell_angle_beta     90.0000
_cell_angle_gamma   120.0000
_cell_formula_units_Z 60
loop_
_atom_site_label
_atom_site_fract_x
_atom_site_fract_y
_atom_site_fract_z
_atom_site_occupancy
_atom_site_B_iso_or_equiv
s      0.333   0.667   0.246    1.00000    1.000
zn      0.667   0.333   0.267    1.00000    1.000
zn      0.000   0.000   0.300    1.00000    1.000
zn      0.667   0.333   0.167    1.00000    1.000
zn      0.333   0.667   0.317    1.00000    1.000
s      0.000   0.000   0.212    1.00000    1.000
s      0.000   0.000   0.163    1.00000    1.000
s      0.333   0.667   0.296    1.00000    1.000
s      0.000   0.000   0.113    1.00000    1.000
zn      0.667   0.333   0.117    1.00000    1.000
zn      0.000   0.000   0.250    1.00000    1.000
zn      0.667   0.333   0.217    1.00000    1.000
zn      0.000   0.000   0.100    1.00000    1.000
zn      0.333   0.667   0.283    1.00000    1.000
s      0.333   0.667   0.046    1.00000    1.000
s      0.667   0.333   0.229    1.00000    1.000
s      0.667   0.333   0.029    1.00000    1.000
zn      0.000   0.000   0.050    1.00000    1.000
zn      0.333   0.667   0.083    1.00000    1.000
zn      0.000   0.000   0.200    1.00000    1.000
zn      0.333   0.667   0.133    1.00000    1.000
zn      0.000   0.000   0.000    1.00000    1.000
s      0.333   0.667   0.329    1.00000    1.000
s      0.333   0.667   0.096    1.00000    1.000
s      0.333   0.667   0.146    1.00000    1.000
zn      0.667   0.333   0.017    1.00000    1.000
s      0.667   0.333   0.079    1.00000    1.000
s      0.667   0.333   0.279    1.00000    1.000
s      0.667   0.333   0.129    1.00000    1.000
s      0.333   0.667   0.196    1.00000    1.000
zn      0.667   0.333   0.067    1.00000    1.000
s      0.000   0.000   0.013    1.00000    1.000
zn      0.333   0.667   0.183    1.00000    1.000
s      0.000   0.000   0.313    1.00000    1.000
s      0.000   0.000   0.263    1.00000    1.000
s      0.667   0.333   0.179    1.00000    1.000
zn      0.000   0.000   0.150    1.00000    1.000
zn      0.333   0.667   0.233    1.00000    1.000
s      0.000   0.000   0.063    1.00000    1.000
zn      0.333   0.667   0.033    1.00000    1.000
_cell_measurement_wavelength    1.541874
_cell_measurement_radiation   'x-rays'
_exptl_crystal_density_diffrn    4.091000
loop_
_pd_peak_d_spacing
_pd_peak_intensity
    62.600001          0.00
    31.300001          0.00
    20.866667          0.00
    15.650000          0.00
    12.520000          0.00
    10.433334          0.00
     8.942857          0.00
     7.825000          0.00
     6.955556          0.00
     6.260000          0.00
     5.690909          0.00
     5.216667          0.00
     4.815385          0.00
     4.471429          0.00
     4.173333          0.00
     3.912500          0.00
     3.307704          7.53
     3.306166         10.64
     3.300035          4.34
     3.295459         13.25
     3.283349          1.46
     3.275848         15.25
     3.247805         16.54
     3.224741          3.63
     3.211981         17.12
     3.184160         35.78
     3.169163         17.04
     3.137164       1000.00
     3.120232         16.49
     3.084673        331.93
     3.066117         15.53
     3.027624         59.54
     3.007756         14.57
     2.966941         23.11
     2.946059         13.99
     2.903499         11.15
     2.881882         14.68
     2.838109          6.00
     2.816008         19.95
     2.771499          3.62
     2.749137         66.06
     2.704307          2.54
     2.681879        143.17
     2.637085          2.20
     2.614753          4.50
     2.570294          2.14
     2.548195          0.46
     2.504317          2.19
     1.910000        611.05
     1.909112          0.00
     1.906454          0.00
     1.902049          0.00
     1.895932          0.00
     1.888155          0.00
     1.878777          0.00
     1.867873          0.00
     1.855524          0.00
     1.841820          0.00
     1.826858          0.00
     1.810737          0.00
     1.793562          0.00
     1.775437          0.00
     1.756466          0.00
     1.736751          0.00
     1.716395          0.00
     1.654044          0.79
     1.653852          1.10
     1.653083          0.45
     1.652507          1.39
     1.650974          0.15
     1.650017          1.62
     1.647729          0.00
     1.646399          1.79
     1.643371          0.40
     1.641675          1.90
     1.637924          4.05
     1.635872          1.95
     1.631422        117.00
     1.629026          1.97
     1.623903         40.43
     1.621178          1.92
     1.615410          7.60
     1.612370          1.89
     1.605990          3.12
     1.602654          1.92
     1.595696          1.60
     1.592080          2.15
     1.584581          0.92
     1.580704          3.13
     1.572702          0.59
     1.568582         11.00
     1.560116          0.44
     1.555773         24.70
     1.546882          0.38
     1.542336          0.79
     1.533058          0.38
     1.528330          0.08
     1.518705          0.39
     1.250361          0.51
     1.250278          0.72
     1.249945          0.30
     1.249696          0.91
     1.249033          0.10
     1.248618          1.06
     1.247048          1.17
     1.245731          0.26
     1.244992          1.25
     1.243353          2.66
     1.242455          1.28
     1.240502         77.22
     1.239448          1.29
     1.237187         26.76
     1.235980          1.27
     1.233418          5.04
     1.232064          1.25
     1.229210          2.06
     1.227712          1.27
     1.224576          1.05
     1.222939          1.42
     1.219531          0.60
     1.217761          2.04
     1.214091          0.38
     1.212192          7.14
     1.208272          0.28
     1.206252         16.17
     1.202093          0.25
     1.199956          0.53
     1.195571          0.26
     1.193325          0.06
     1.188726          0.28
     1.102739         72.79
     1.102568          0.00
     1.102055          0.00
     1.101202          0.00
     1.100012          0.00
     1.098486          0.00
     1.096631          0.00
     1.094450          0.00
     1.091949          0.00
     1.089136          0.00
     1.086018          0.00
     1.082602          0.00
     1.078897          0.00
     1.074914          0.00
     1.070660          0.00
     1.066148          0.00
     1.061387          0.00
##############################################################################
###                            Comments                                    ###
##############################################################################
###   Diffraction pattern calculated by Match!. 
###   I/Ic calculated by Match!. 
##############################################################################


