##############################################################################
###               Crystal structure data exported by Match!                ###
##############################################################################

data_2002205
_citation_journal_full    'Zeitschrift fuer Anorganische und Allgemeine Chemie'
_citation_journal_id_ASTM 'ZAACAB'
_citation_journal_volume  '405'
_citation_page_first  '1'
_citation_page_last   '7'
_citation_year  '1974'
_citation_title  'Ein neuer Bautyp zur Formel Me2+ Me3+ O4. Sr Cr2 O4'
loop_
_publ_author_name
  'Pausch H'
  'Mueller-Buschbaum Hk'
_chemical_formula_sum  'Cr2 O4 Sr'
_chemical_name_mineral  'Strontium dichromium oxide'
_chemical_name_common  'Strontium dichromium oxide'
_symmetry_space_group_name_H-M 'P m m n'
_space_group_IT_number 59
_space_group_crystal_system 'orthorhombic'
loop_
_symmetry_equiv_pos_as_xyz
   'x, y, z'
   '-x+0.5, -y+0.5, -z'
   '-x, -y, z'
   'x+0.5, -y+0.5, -z'
   '-x+0.5, y+0.5, -z'
   'x+0.5, y+0.5, -z'
   '-x, y, z'
   'x, -y, z'
_cell_length_a       11.64300
_cell_length_b        5.88100
_cell_length_c        5.11500
_cell_angle_alpha    90.0000
_cell_angle_beta     90.0000
_cell_angle_gamma    90.0000
_cell_formula_units_Z 4
loop_
_atom_site_label
_atom_site_fract_x
_atom_site_fract_y
_atom_site_fract_z
_atom_site_occupancy
_atom_site_B_iso_or_equiv
sr      0.000   0.500   0.140    1.00000    1.000
sr      0.500   0.500   0.452    1.00000    1.000
cr      0.257   0.000   0.495    1.00000    1.000
cr      0.250   0.250   0.000    1.00000    1.000
o      0.340   0.000   0.166    1.00000    1.000
o      0.165   0.000   0.830    1.00000    1.000
o      0.155   0.248   0.333    1.00000    1.000
_cell_measurement_wavelength    1.541874
_cell_measurement_radiation   'x-rays'
_exptl_crystal_density_diffrn    4.847000
_exptl_crystal_density_meas      4.810000
loop_
_pd_peak_d_spacing
_pd_peak_intensity
     5.821500        482.93
     5.249352          1.88
     5.115000         24.69
     4.683010         96.59
     3.859454        249.10
     3.842491         29.91
     3.663428       1000.00
     3.239236          3.42
     3.216744        348.39
     3.091768         32.76
     2.940500        231.27
     2.910750        656.69
     2.736632        572.76
     2.624676        314.48
     2.557500        206.07
     2.549273        310.08
     2.529814          4.45
     2.497946         52.13
     2.490279          7.64
     2.345327         14.35
     2.341505        127.79
     2.335186        379.87
     2.323921        131.35
     2.299145        102.25
     2.175420         10.14
     2.165059          2.01
     2.135515        331.84
     2.130718        251.74
     2.119317          4.66
     2.068649        172.51
     2.007275        102.14
     1.993806        121.26
     1.940500         14.76
     1.933124          0.18
     1.929727         12.40
     1.921245        365.53
     1.917750        594.25
     1.903756        149.00
     1.831714         23.99
     1.830503         29.18
     1.826262         13.91
     1.814324          2.89
     1.808291        119.22
     1.749784          0.68
     1.746212         51.24
     1.733696         52.74
     1.727915        101.41
     1.721818         33.63
     1.719300          1.17
     1.705000         22.61
     1.687007          1.77
     1.655591        111.33
     1.652451         19.43
     1.637568         22.40
     1.636265         36.85
     1.621607          3.41
     1.619618         73.05
     1.608372         10.82
     1.600505          1.47
     1.581759          5.51
     1.576387         57.49
     1.561003          1.31
     1.555855          3.05
     1.549558         30.73
     1.545884         67.03
     1.544061        173.03
     1.542147         26.06
     1.527474        103.96
     1.508759          0.26
     1.503099          2.99
     1.499669          0.54
     1.495094          3.14
     1.485832         50.54
     1.474985        285.21
     1.471187         28.28
     1.470250        170.94
     1.463289          2.01
     1.455375         90.81
     1.444132         29.29
     1.439091         37.52
     1.429805         30.49
     1.427207         28.38
     1.425491          5.23
     1.413035          1.02
     1.402742          4.68
     1.399815          1.19
     1.394344          5.79
     1.393007          1.27
     1.378767          1.70
     1.375664          0.91
     1.373163          2.12
     1.372137          4.93
     1.368316          7.37
     1.361770         16.31
     1.356733         31.45
     1.339505          3.35
     1.331550         19.96
     1.327767          3.77
     1.315702        131.20
     1.312338         89.06
     1.304356         21.77
     1.293663          7.98
     1.286485          8.98
     1.280830         17.01
     1.278750          4.00
     1.278702          1.20
     1.274636         34.26
     1.271167          0.90
     1.271106          7.68
     1.268279          0.47
     1.267066         14.26
     1.264907         51.31
     1.263908         80.20
     1.263459          1.26
     1.259877         33.74
     1.256177         23.73
     1.254176          1.86
     1.251493         22.30
     1.249552          8.70
     1.248973         39.00
     1.246046          1.23
     1.245139         20.72
     1.242418         19.15
     1.236627          2.18
     1.231002         43.82
     1.226593         15.94
     1.221725         22.69
     1.221143          0.20
     1.214522          0.73
     1.213864          1.27
     1.210996         64.71
     1.208019          1.46
     1.190595          0.37
     1.189423         20.59
     1.176680         13.73
     1.174267          1.38
     1.172664          1.55
     1.171874          3.70
     1.170752         17.09
     1.170244          0.01
     1.167593         92.43
     1.166922          0.00
     1.166761          2.93
     1.164300          1.83
     1.161961          4.23
     1.154385         25.38
     1.153625         14.19
     1.149573          2.65
     1.148221         12.80
     1.146284          4.61
     1.142279          1.03
     1.140769         21.73
     1.139192          8.58
     1.136238         16.22
     1.135261          0.55
     1.132768          3.44
     1.126061          1.69
     1.125641          0.05
     1.124688         10.21
     1.122540          2.37
     1.120863          2.88
     1.118090         14.78
     1.114682         10.87
     1.113446          9.21
     1.108389          0.74
     1.106943          6.30
     1.103567          0.56
     1.101044          8.88
     1.099336         23.20
     1.093622         16.76
     1.087840         10.68
     1.087710          3.04
     1.082529         18.71
     1.079745          0.61
     1.076889          2.47
     1.074546         19.95
     1.072248         13.18
     1.071027          5.02
     1.070270          0.66
     1.068606          0.92
     1.067757         33.79
     1.066559          8.37
     1.066524         11.64
     1.065359         25.41
     1.064134          6.62
     1.062854          1.33
     1.059659          3.13
     1.059071         11.38
     1.056463         10.23
     1.053348         14.12
     1.051045          0.79
     1.050582         14.62
     1.049870          0.12
     1.047353          3.26
     1.042865          1.12
     1.041717          1.07
     1.039955         16.29
     1.036495          0.26
     1.035969         77.10
     1.034325         50.70
     1.032434         13.07
     1.030589          0.41
     1.030265          9.20
     1.028431         12.17
     1.023000          0.21
     1.020763         26.92
     1.019074         12.69
     1.017615          0.01
     1.015120          2.81
     1.013805          0.75
     1.013774          4.21
     1.011721          5.35
     1.007865          0.03
     1.007561          0.56
##############################################################################
###                            Comments                                    ###
##############################################################################
###   Diffraction pattern calculated by Match!. 
###   I/Ic calculated by Match!. 
###   Space group has been derived from given symmetry operations. 
##############################################################################


