##############################################################################
###               Crystal structure data exported by Match!                ###
##############################################################################
###                           Data published by:                           ###
###                                                                        ###
###               COD (Crystallography Open Database)
##############################################################################
data_9009285
_citation_journal_full    'Neues Jahrbuch fur Mineralogie, Monatshefte'
_citation_journal_volume  '1976'
_citation_page_first  '406'
_citation_page_last   '417'
_citation_year  '1976'
_citation_title  'Crystal chemistry of the alunite series: crystal structure refinement ofalunite and synthetic jarosite Note: none of the reported bond lengths can bereproduced Locality: synthetic'
loop_
_publ_author_name
  'Menchetti S.'
  'Sabelli C.'
_chemical_formula_sum  'Fe3 H6 K O14 S2'
_chemical_name_mineral  'Jarosite'
_symmetry_space_group_name_H-M 'R -3 m'
_space_group_IT_number 166
_space_group_crystal_system 'trigonal (hexagonal axes)'
loop_
_symmetry_equiv_pos_as_xyz
   'x, y, z'
   'x+0.66667, y+0.33333, z+0.33333'
   'x+0.33333, y+0.66667, z+0.66667'
   '-y, x-y, z'
   '-y+0.66667, x-y+0.33333, z+0.33333'
   '-y+0.33333, x-y+0.66667, z+0.66667'
   '-x+y, -x, z'
   '-x+y+0.66667, -x+0.33333, z+0.33333'
   '-x+y+0.33333, -x+0.66667, z+0.66667'
   'x-y, -y, -z'
   'x-y+0.66667, -y+0.33333, -z+0.33333'
   'x-y+0.33333, -y+0.66667, -z+0.66667'
   '-x, -x+y, -z'
   '-x+0.66667, -x+y+0.33333, -z+0.33333'
   '-x+0.33333, -x+y+0.66667, -z+0.66667'
   'y, x, -z'
   'y+0.66667, x+0.33333, -z+0.33333'
   'y+0.33333, x+0.66667, -z+0.66667'
   '-x, -y, -z'
   '-x+0.66667, -y+0.33333, -z+0.33333'
   '-x+0.33333, -y+0.66667, -z+0.66667'
   'y, -x+y, -z'
   'y+0.66667, -x+y+0.33333, -z+0.33333'
   'y+0.33333, -x+y+0.66667, -z+0.66667'
   'x-y, x, -z'
   'x-y+0.66667, x+0.33333, -z+0.33333'
   'x-y+0.33333, x+0.66667, -z+0.66667'
   '-x+y, y, z'
   '-x+y+0.66667, y+0.33333, z+0.33333'
   '-x+y+0.33333, y+0.66667, z+0.66667'
   'x, x-y, z'
   'x+0.66667, x-y+0.33333, z+0.33333'
   'x+0.33333, x-y+0.66667, z+0.66667'
   '-y, -x, z'
   '-y+0.66667, -x+0.33333, z+0.33333'
   '-y+0.33333, -x+0.66667, z+0.66667'
_cell_length_a        7.31500
_cell_length_b        7.31500
_cell_length_c       17.22400
_cell_angle_alpha    90.0000
_cell_angle_beta     90.0000
_cell_angle_gamma   120.0000
loop_
_atom_site_label
_atom_site_fract_x
_atom_site_fract_y
_atom_site_fract_z
_atom_site_occupancy
_atom_site_B_iso_or_equiv
k      0.000   0.000   0.000    1.00000    1.980
fe      0.000   0.500   0.500    1.00000    1.320
s      0.000   0.000   0.309    1.00000    1.230
o      0.000   0.000   0.394    1.00000    1.249
o      0.223   -0.223   -0.054    1.00000    1.489
o      0.127   -0.127   0.136    1.00000    1.459
h      0.169   -0.169   0.106    1.00000    8.949
_cell_measurement_wavelength    1.541874
_cell_measurement_radiation   'x-rays'
_exptl_crystal_density_diffrn    3.126000
loop_
_pd_peak_d_spacing
_pd_peak_intensity
     5.945579        323.30
     5.741334        211.23
     5.103038        557.28
     3.657500        102.46
     3.561212         27.57
     3.115249        619.74
     3.084737       1000.00
     3.026309          5.38
     2.972790        126.79
     2.870667        186.03
     2.551519        216.39
     2.371590         21.89
     2.331635         11.71
     2.306893         17.30
     2.293635        298.93
     2.258182          0.52
     2.111659          1.21
     2.092630          0.06
     2.038489          2.47
     1.981860        294.79
     1.966103         10.39
     1.943158         79.90
     1.913778         50.62
     1.828750        294.93
     1.780606         55.98
     1.747935          2.87
     1.742491         41.89
     1.721543         30.13
     1.716012         22.27
     1.701013          0.07
     1.695676         20.62
     1.662063          1.39
     1.626792         29.18
     1.600963         37.01
     1.577091         33.51
     1.565174         40.86
     1.557624         57.90
     1.542368        150.43
     1.520074          1.30
     1.513155        178.10
     1.486395         53.33
     1.448197         16.71
     1.438953         23.70
     1.435333          2.43
     1.433080         22.60
     1.429885         26.74
     1.418055         29.48
     1.403674         26.96
     1.398220          0.02
     1.382405          7.01
     1.377025          6.84
     1.361253          2.68
     1.343995         75.49
     1.339049          0.12
     1.336130          2.02
     1.331732         19.45
     1.322159         27.29
     1.310479          0.28
     1.296863         14.51
     1.275759          5.25
     1.263581          0.08
     1.253502          0.61
     1.251362         50.50
     1.245510          1.44
     1.229973         11.19
     1.222301          2.14
     1.219167         17.64
     1.215471          0.04
     1.207722          0.18
     1.204584          0.69
     1.194316         24.00
     1.192575         20.04
     1.189116          0.09
     1.187071          7.01
     1.185795         11.92
     1.168973          0.50
     1.165818         27.10
     1.159278         31.47
     1.153447         31.17
     1.148267          0.55
     1.146817          5.87
     1.135321          0.28
     1.130851         33.65
     1.129091         18.46
     1.127993          6.30
     1.126433          2.20
     1.122159          0.06
     1.120623          9.23
     1.113484         15.51
     1.110756          0.34
     1.100041          2.08
     1.095545          1.77
     1.094286          8.65
     1.091950          3.41
     1.080389          7.82
     1.076534          1.30
     1.065214          0.00
     1.061286          0.00
     1.057863         20.05
     1.055829         15.95
     1.046315         13.77
     1.039565          0.26
     1.038416          4.89
     1.033931          3.28
     1.032729          4.51
     1.028246          0.24
     1.020608          0.00
     1.019245         20.70
     1.016211          0.85
     1.014408          1.07
     1.012276          0.02
     1.008770          0.91
     1.007787          4.46
##############################################################################
###                            Comments                                    ###
##############################################################################
###   Diffraction pattern calculated by Match!. 
###   I/Ic calculated by Match!. 
##############################################################################


