##############################################################################
###               Crystal structure data exported by Match!                ###
##############################################################################
###                           Data published by:                           ###
###                                                                        ###
###               COD (Crystallography Open Database)
##############################################################################
data_9003323
_citation_journal_full    'American Mineralogist'
_citation_journal_volume  '89'
_citation_page_first  '359'
_citation_page_last   '364'
_citation_year  '2004'
_citation_title  'Sodalite: High-temperature structures obtained from synchrotron radiationand Rietveld refinementsSample: T = 270 C'
loop_
_publ_author_name
  'Hassan I.'
  'Antao S. M.'
  'Parise J. B.'
_chemical_formula_sum  'Al3 Cl Na4 O12 Si3'
_chemical_name_mineral  'Sodalite'
_symmetry_space_group_name_H-M 'P -4 3 n'
_space_group_IT_number 218
_space_group_crystal_system 'cubic'
loop_
_symmetry_equiv_pos_as_xyz
   'x, y, z'
   'y+0.5, -x+0.5, -z+0.5'
   '-x, -y, z'
   '-y+0.5, x+0.5, -z+0.5'
   '-x+0.5, z+0.5, -y+0.5'
   'x, -y, -z'
   '-x+0.5, -z+0.5, y+0.5'
   '-z+0.5, -y+0.5, x+0.5'
   '-x, y, -z'
   'z+0.5, -y+0.5, -x+0.5'
   'z, x, y'
   'y, z, x'
   '-y, -z, x'
   'z, -x, -y'
   '-y, z, -x'
   '-z, -x, y'
   '-z, x, -y'
   'y, -z, -x'
   '-y+0.5, -x+0.5, z+0.5'
   'y+0.5, x+0.5, z+0.5'
   'x+0.5, -z+0.5, -y+0.5'
   'x+0.5, z+0.5, y+0.5'
   '-z+0.5, y+0.5, -x+0.5'
   'z+0.5, y+0.5, x+0.5'
_cell_length_a        8.91423
_cell_length_b        8.91423
_cell_length_c        8.91423
_cell_angle_alpha    90.0000
_cell_angle_beta     90.0000
_cell_angle_gamma    90.0000
loop_
_atom_site_label
_atom_site_fract_x
_atom_site_fract_y
_atom_site_fract_z
_atom_site_occupancy
_atom_site_B_iso_or_equiv
na      0.179   0.179   0.179    1.00000    2.739
al      0.250   0.000   0.500    1.00000    0.710
si      0.250   0.500   0.000    1.00000    0.710
o      0.141   0.152   0.442    1.00000    0.726
cl      0.000   0.000   0.000    1.00000    3.671
_cell_measurement_wavelength    1.541874
_cell_measurement_radiation   'x-rays'
_cell_measurement_temperature    543.100000
_exptl_crystal_density_diffrn    2.272000
loop_
_pd_peak_d_spacing
_pd_peak_intensity
     6.303313        344.30
     4.457115         54.35
     3.986565         10.96
     3.639219       1000.00
     3.151656          1.29
     2.818927         91.05
     2.573317        181.66
     2.472363          0.21
     2.382428        181.25
     2.228558         17.26
     2.162018          0.27
     2.101104        309.14
     1.993283         40.51
     1.945245          0.22
     1.900520         33.83
     1.819610         27.77
     1.782846          0.09
     1.748224         40.00
     1.655331          2.03
     1.627508         29.85
     1.575828         94.20
     1.528778         54.06
     1.506780          0.78
     1.485705         90.48
     1.465490          0.27
     1.446079         82.92
     1.409464          5.47
     1.392169          0.43
     1.375496         30.80
     1.343871         39.89
     1.328855          0.38
     1.314332         37.41
     1.286658         28.38
     1.273461          0.02
     1.260663          3.39
     1.236181          5.77
     1.224464          0.44
     1.213073         82.04
     1.191214          9.46
     1.170496         21.94
     1.160534          0.19
     1.141350          0.55
     1.132108         30.77
     1.114279          4.61
     1.105674          0.22
     1.097266         19.73
     1.081009         17.60
     1.073147          0.36
     1.065454          3.47
     1.050552          5.89
     1.043332          0.04
     1.036258          2.66
     1.029327          0.34
     1.022532         20.02
     1.015871          0.95
     1.009338          9.35
##############################################################################
###                            Comments                                    ###
##############################################################################
###   Diffraction pattern calculated by Match!. 
###   I/Ic calculated by Match!. 
###   Space group has been derived from given symmetry operations. 
##############################################################################


