##############################################################################
###               Crystal structure data exported by Match!                ###
##############################################################################
###                           Data published by:                           ###
###                                                                        ###
###               COD (Crystallography Open Database)
##############################################################################
data_9006303
_citation_journal_full    'Physics and Chemistry of Minerals'
_citation_journal_volume  '21'
_citation_page_first  '269'
_citation_page_last   '284'
_citation_year  '1994'
_citation_title  'Framework silica structures generated using simulated annealingwith a potential energy function based on an H6Si2O7 moleculeSample: 20'
loop_
_publ_author_name
  'Boisen M. B.'
  'Gibbs G. V.'
  'Bukowinski M. S. T.'
_chemical_formula_sum  'O2 Si'
_chemical_name_common  'Silica'
_symmetry_space_group_name_H-M 'P 1'
_space_group_IT_number 1
_space_group_crystal_system 'triclinic'
loop_
_symmetry_equiv_pos_as_xyz
   'x, y, z'
_cell_length_a        5.45150
_cell_length_b        5.32270
_cell_length_c        5.80910
_cell_angle_alpha    77.9812
_cell_angle_beta     82.2353
_cell_angle_gamma    54.5766
loop_
_atom_site_label
_atom_site_fract_x
_atom_site_fract_y
_atom_site_fract_z
_atom_site_occupancy
_atom_site_B_iso_or_equiv
si      0.631   0.155   0.922    1.00000    1.000
si      0.740   0.537   0.096    1.00000    1.000
si      0.077   0.984   0.511    1.00000    1.000
si      0.674   0.807   0.616    1.00000    1.000
o      0.627   0.889   0.116    1.00000    1.000
o      0.930   0.816   0.443    1.00000    1.000
o      0.953   0.062   0.783    1.00000    1.000
o      0.445   0.753   0.514    1.00000    1.000
o      0.976   0.289   0.307    1.00000    1.000
o      0.467   0.150   0.712    1.00000    1.000
o      0.877   0.525   0.832    1.00000    1.000
o      0.494   0.467   0.048    1.00000    1.000
_cell_measurement_wavelength    1.541874
_cell_measurement_radiation   'x-rays'
_exptl_crystal_density_diffrn    2.971000
loop_
_pd_peak_d_spacing
_pd_peak_intensity
     5.680832        198.03
     4.693245         91.99
     4.441653       1000.00
     4.280899        172.18
     4.025197        141.69
     3.718517        237.42
     3.530192        301.46
     3.468783        364.31
     3.314002         84.85
     3.181630        679.46
     2.840416        112.79
     2.695723        284.71
     2.672482         54.89
     2.588513         59.58
     2.564548        206.77
     2.562152        237.46
     2.560764          0.96
     2.460998         27.62
     2.412832         86.05
     2.373550        111.06
     2.346623          0.36
     2.336011        216.04
     2.329376         57.89
     2.326864         40.59
     2.243484        131.69
     2.220826         57.70
     2.208734         52.96
     2.193180         41.22
     2.191952         18.58
     2.144758          6.78
     2.140449          5.39
     2.118626        173.28
     2.088063         87.57
     2.081188         23.61
     2.055823         24.69
     2.033130          9.98
     2.012599         58.16
     1.940895         17.25
     1.904428         20.89
     1.893611         15.89
     1.888875         23.81
     1.859259         22.51
     1.845070          0.76
     1.845043         49.02
     1.788399         54.42
     1.780808         17.90
     1.780185         12.20
     1.765096         12.47
     1.759151          1.60
     1.753388         11.55
     1.743442         27.88
     1.737627         39.67
     1.734392         66.31
     1.730661         17.62
     1.728454         19.63
     1.703932         11.03
     1.703374         32.19
     1.685315          1.82
     1.661542         43.26
     1.657001         12.85
     1.648022         20.47
     1.647824          8.35
     1.638507          3.31
     1.637040         33.94
     1.636190         17.94
     1.628584         11.44
     1.628476         27.30
     1.627049         10.15
     1.622819          3.77
     1.604022          7.33
     1.591877         40.31
     1.590815          9.37
     1.589938         23.73
     1.585798          0.51
     1.573479          2.86
     1.565032          8.30
     1.564427         24.80
     1.564415          1.58
     1.547187         28.60
     1.546004          1.40
     1.542889         53.85
     1.517340         28.15
     1.499829          5.63
     1.499588         53.54
     1.480551         10.96
     1.470353          4.13
     1.466803         14.09
     1.453960          6.98
     1.444289         12.84
     1.443006         36.80
     1.439796          0.50
     1.439599          0.44
     1.439057          5.61
     1.438017         10.56
     1.434581         67.44
     1.428266          8.30
     1.428230         13.69
     1.426966         24.07
     1.426413          3.63
     1.420208          4.74
     1.417874         11.22
     1.413070         28.85
     1.411516          9.32
     1.397781         34.06
     1.389821         19.49
     1.384470         11.29
     1.369178          0.91
     1.366343          1.10
     1.359891         39.05
     1.356062          2.68
     1.350268          0.95
     1.349349         31.33
     1.347862         11.81
     1.345700          8.41
     1.341732          5.52
     1.339324         16.78
     1.336241         22.22
     1.334176         33.02
     1.333117         12.84
     1.326351          4.07
     1.325697          4.66
     1.325225         24.40
     1.322740         14.67
     1.322023          7.22
     1.316988         17.10
     1.308727         18.42
     1.307717         22.98
     1.303277         15.11
     1.299197         29.57
     1.294256          9.47
     1.291152         59.65
     1.287471         12.15
     1.282274         12.85
     1.281076         32.18
     1.280382         13.49
     1.279322         21.67
     1.276581         24.36
     1.276505          1.94
     1.273155          1.47
     1.269510         24.41
     1.269444         15.22
     1.265101         31.58
     1.263737         14.38
     1.251778         10.61
     1.239506          0.12
     1.230687         21.60
     1.230663          5.77
     1.230499          0.37
     1.230024          0.55
     1.228427          8.16
     1.223676         11.45
     1.216158          2.11
     1.209334          8.12
     1.208829         19.96
     1.206915          1.55
     1.206470          3.39
     1.206416         18.59
     1.205560          4.91
     1.203568          0.91
     1.200836          9.24
     1.199995          2.16
     1.197114          8.69
     1.196326          2.07
     1.195896          8.92
     1.195613          7.48
     1.188372          6.13
     1.188071          5.63
     1.186775          7.90
     1.184966         24.61
     1.184793          9.63
     1.183387          0.76
     1.182597         10.08
     1.180003          0.12
     1.177400         31.52
     1.176731          6.18
     1.173311         17.00
     1.173281         14.20
     1.171706         14.72
     1.170208         17.27
     1.168235          0.43
     1.168005          6.99
     1.164688         18.77
     1.163432          9.23
     1.161455         11.67
     1.160400          1.30
     1.157221          5.01
     1.156261          2.32
     1.149628          2.70
     1.149460         14.34
     1.144770          9.63
     1.143694          3.32
     1.140516          3.71
     1.139835          3.04
     1.136166          7.40
     1.129153          4.37
     1.129087          4.55
     1.126486         10.74
     1.124651          1.90
     1.121742          0.32
     1.120550          2.37
     1.118969         10.01
     1.117952          0.32
     1.111384         10.93
     1.110413          4.73
     1.106985          0.56
     1.105535          1.04
     1.104667         19.25
     1.104367          2.10
     1.098908         14.70
     1.098120          0.72
     1.096749          2.01
     1.096590          1.19
     1.096467          1.43
     1.096225          1.64
     1.095978          0.01
     1.095976          3.30
     1.093518          2.37
     1.088113          2.77
     1.086099          2.33
     1.085838          0.44
     1.085028          5.83
     1.083935          2.05
     1.078026          1.47
     1.077950          0.86
     1.073022          1.85
     1.072379          8.81
     1.070225          3.56
     1.067305          0.31
     1.065532          8.11
     1.064158          7.55
     1.063421          1.74
     1.062725          2.75
     1.061834          1.41
     1.060543          3.07
     1.059584          4.11
     1.059313          0.02
     1.057978          0.52
     1.056795          2.44
     1.056114          7.14
     1.055785          2.84
     1.055320          0.08
     1.050858          1.41
     1.045955          1.73
     1.045822          1.98
     1.044266          3.32
     1.044031          0.65
     1.041531          8.41
     1.041139          6.07
     1.040594          3.67
     1.039235          4.67
     1.036771          1.40
     1.036269          1.25
     1.034627          2.09
     1.034292          7.01
     1.033530         12.88
     1.032981          0.24
     1.032337          1.69
     1.030101          1.29
     1.029686          1.45
     1.029448          9.10
     1.027911          1.81
     1.027646          0.19
     1.025145          1.56
     1.023691          1.71
     1.022223          3.04
     1.021567          3.58
     1.019591          0.75
     1.019211          3.02
     1.018981          2.36
     1.018888          1.41
     1.016565          0.62
     1.016200          4.52
     1.015774          1.23
     1.011146          0.82
     1.007794          6.88
##############################################################################
###                            Comments                                    ###
##############################################################################
###   Diffraction pattern calculated by Match!. 
###   I/Ic calculated by Match!. 
###   Space group has been derived from given symmetry operations. 
##############################################################################


