##############################################################################
###               Crystal structure data exported by Match!                ###
##############################################################################
###                           Data published by:                           ###
###                                                                        ###
###               COD (Crystallography Open Database)
##############################################################################
data_9013437
_citation_journal_full    'Materials Research Bulletin'
_citation_journal_volume  '14'
_citation_page_first  '1571'
_citation_page_last   '1581'
_citation_year  '1979'
_citation_title  'Crystal growth and structure of BiVO4Locality: syntheticSample: T = 295 K'
loop_
_publ_author_name
  'Sleight A. W.'
  'Chen H.-Y.'
  'Ferretti A.'
  'Cox D. E.'
_chemical_formula_sum  'Bi O4 V'
_chemical_name_mineral  'Clinobisvanite'
_symmetry_space_group_name_H-M 'I 1 1 2/b'
_space_group_IT_number 15
_space_group_crystal_system 'monoclinic'
loop_
_symmetry_equiv_pos_as_xyz
   'x, y, z'
   'x+0.5, y+0.5, z+0.5'
   '-x, -y+0.5, z'
   '-x+0.5, -y, z+0.5'
   '-x, -y, -z'
   '-x+0.5, -y+0.5, -z+0.5'
   'x, y+0.5, -z'
   'x+0.5, y, -z+0.5'
_cell_length_a        5.19350
_cell_length_b        5.08980
_cell_length_c       11.69720
_cell_angle_alpha    90.0000
_cell_angle_beta     90.0000
_cell_angle_gamma    90.3870
loop_
_atom_site_label
_atom_site_fract_x
_atom_site_fract_y
_atom_site_fract_z
_atom_site_occupancy
_atom_site_B_iso_or_equiv
bi      0.000   0.250   0.633    1.00000    0.799
v      0.000   0.250   0.130    1.00000    1.000
o      0.146   0.508   0.208    1.00000    0.850
o      0.261   0.381   0.449    1.00000    0.850
_cell_measurement_wavelength    1.541874
_cell_measurement_radiation   'x-rays'
_cell_measurement_temperature    295.000000
_exptl_crystal_density_diffrn    6.958000
loop_
_pd_peak_d_spacing
_pd_peak_intensity
     5.848600         27.17
     4.746581        378.42
     4.667021        493.63
     3.118091        202.32
     3.095212         69.25
     3.094881        993.02
     3.079841       1000.00
     2.924300        330.31
     2.596691        216.59
     2.544842        216.94
     2.373291         13.73
     2.333510          0.00
     2.281545         54.84
     2.275500          0.08
     2.275105         58.89
     2.263163        147.85
     2.248616        122.13
     2.237084         38.44
     2.133014         44.74
     2.125647        135.54
     1.993375         72.22
     1.985328         30.27
     1.975485         68.20
     1.967652        103.71
     1.949533          8.23
     1.941677        268.73
     1.919710        264.18
     1.823697        105.54
     1.811423        113.66
     1.741020          2.53
     1.730331          2.24
     1.719343        149.03
     1.716751        155.54
     1.712475         36.42
     1.678993         36.87
     1.647103         37.65
     1.642554         32.89
     1.636967          7.69
     1.632502          8.37
     1.590713         56.56
     1.587650         10.43
     1.582194         42.70
     1.581152        137.88
     1.575126        105.17
     1.559046         12.58
     1.557559         99.26
     1.555674         23.12
     1.551798        134.22
     1.547606          9.98
     1.547440        108.89
     1.539921        103.19
     1.462150         29.01
     1.431941          2.72
     1.427460          5.28
     1.425169          8.65
     1.416375         20.54
     1.414346          3.31
     1.414251         25.85
     1.410028          3.86
     1.405656         11.50
     1.391569          3.86
     1.373423         19.15
     1.357162          5.84
     1.355886         17.15
     1.355803          3.00
     1.353263          2.10
     1.350133         17.04
     1.347625         26.82
     1.347406         19.66
     1.339967         12.17
     1.338168          4.47
     1.331814          5.73
     1.330881          9.06
     1.327011          5.34
     1.298345         30.50
     1.274057         56.51
     1.272421         27.72
     1.267791         51.65
     1.267490          0.08
     1.260807          1.00
     1.259280         21.03
     1.256030         39.90
     1.253003         58.51
     1.252849         13.87
     1.248849          9.88
     1.244105         58.95
     1.243336          3.08
     1.241163         34.85
     1.230929          8.63
     1.227134          9.91
     1.223751          7.30
     1.218170          7.55
     1.216818         18.67
     1.211331         21.88
     1.202281         13.03
     1.199036          3.87
     1.195528          6.56
     1.190520          1.67
     1.190351         44.84
     1.186645         42.59
     1.182668         41.21
     1.179778         11.00
     1.176436         11.07
     1.169720          4.89
     1.166755         37.86
     1.159700         23.92
     1.153375         21.26
     1.145676         22.36
     1.140773         31.85
     1.139577         20.58
     1.137750         29.79
     1.137553          0.87
     1.133814         19.98
     1.132327         13.92
     1.131581          1.21
     1.130492          0.65
     1.129018          2.96
     1.124308          0.03
     1.122637          0.36
     1.118542          0.00
     1.116186          2.24
     1.113843         29.12
     1.113137         24.72
     1.109401         15.09
     1.106620         14.52
     1.094094          4.85
     1.092058          4.93
     1.091427          4.23
     1.090066          4.57
     1.089045         18.77
     1.085106         14.31
     1.084193          5.38
     1.084150          2.44
     1.082244          4.02
     1.080632          2.32
     1.080264          3.42
     1.078023         28.24
     1.072937         28.88
     1.066731         28.68
     1.066507          5.38
     1.065547          3.22
     1.062823          9.05
     1.061803         29.29
     1.041768         13.02
     1.040906          0.43
     1.039364          1.33
     1.034605          5.42
     1.031737         13.73
     1.031627         25.27
     1.030421          7.09
     1.026614         26.81
     1.024626          6.25
     1.023776          9.65
     1.018092          5.68
     1.014104          8.26
##############################################################################
###                            Comments                                    ###
##############################################################################
###   Diffraction pattern calculated by Match!. 
###   I/Ic calculated by Match!. 
###   Space group has been derived from given symmetry operations. 
##############################################################################


