##############################################################################
###               Crystal structure data exported by Match!                ###
##############################################################################
###                           Data published by:                           ###
###                                                                        ###
###               COD (Crystallography Open Database)
##############################################################################
data_9012697
_citation_journal_full    'Journal of Solid State Chemistry'
_citation_journal_volume  '57'
_citation_page_first  '343'
_citation_page_last   '350'
_citation_year  '1985'
_citation_title  'Monoxyde quadratique PbO alpha(I): Description de la transition structuraleferroelastique Method: Neutron Diffraction T = 300 K Locality: synthetic'
loop_
_publ_author_name
  'Boher P.'
  'Garnier P.'
  'Gavarri J. R.'
  'Hewat A. W.'
_chemical_formula_sum  'O Pb'
_chemical_name_mineral  'Litharge'
_symmetry_space_group_name_H-M 'C m m a'
_space_group_IT_number 67
_space_group_crystal_system 'orthorhombic'
loop_
_symmetry_equiv_pos_as_xyz
   'x, y, z'
   'x+0.5, y+0.5, z'
   '-x, -y+0.5, z'
   '-x+0.5, -y, z'
   'x, -y, -z'
   'x+0.5, -y+0.5, -z'
   '-x, y+0.5, -z'
   '-x+0.5, y, -z'
   '-x, -y, -z'
   '-x+0.5, -y+0.5, -z'
   'x, y+0.5, -z'
   'x+0.5, y, -z'
   '-x, y, z'
   '-x+0.5, y+0.5, z'
   'x, -y+0.5, z'
   'x+0.5, -y, z'
_cell_length_a        5.62530
_cell_length_b        5.62530
_cell_length_c        5.02590
_cell_angle_alpha    90.0000
_cell_angle_beta     90.0000
_cell_angle_gamma    90.0000
loop_
_atom_site_label
_atom_site_fract_x
_atom_site_fract_y
_atom_site_fract_z
_atom_site_occupancy
_atom_site_B_iso_or_equiv
pb      0.000   0.250   0.765    1.00000    1.459
o      0.250   0.000   0.000    1.00000    1.866
_cell_measurement_wavelength    1.541874
_cell_measurement_radiation   'x-rays'
_cell_measurement_temperature    300.000000
_exptl_crystal_density_diffrn    9.322000
loop_
_pd_peak_d_spacing
_pd_peak_intensity
     5.025900         29.91
     3.119037       1000.00
     2.812650        319.22
     2.512950        111.40
     2.454440          0.17
     2.124496         12.23
     1.988844        150.77
     1.873956        236.49
     1.849313          5.62
     1.676936        285.60
     1.675300          1.80
     1.559518         92.89
     1.543949         96.80
     1.451914          6.22
     1.439325          9.57
     1.406325         40.83
     1.354305          1.45
     1.282033         50.08
     1.281302          2.80
     1.257855         42.16
     1.256475         11.13
     1.227220         36.83
     1.220220          0.18
     1.219589         76.14
     1.198121          5.59
     1.172676          1.34
     1.147209         25.35
     1.124813         64.94
     1.077558         52.70
     1.077123          1.56
     1.062248         23.96
     1.039679         21.93
     1.026283          6.66
     1.010155          1.66
##############################################################################
###                            Comments                                    ###
##############################################################################
###   Diffraction pattern calculated by Match!. 
###   I/Ic calculated by Match!. 
###   Space group has been derived from given symmetry operations. 
##############################################################################


