##############################################################################
###               Crystal structure data exported by Match!                ###
##############################################################################
###                           Data published by:                           ###
###                                                                        ###
###               COD (Crystallography Open Database)
##############################################################################
data_8103691
_citation_journal_full    'Zeitschrift fuer Kristallographie (149,1979-)'
_citation_journal_volume  '21'
_citation_page_first  '260'
_citation_page_last   '265'
_citation_year  '2006'
_citation_title  'The crystal structure of ZSM-10, a powder x-ray and electron diffractionstudy'
loop_
_publ_author_name
  'Dorset D.L.'
_chemical_formula_sum  'O2 Si'
_chemical_name_common  'Silica'
_symmetry_space_group_name_H-M 'P 6/m m m'
_space_group_IT_number 191
_space_group_crystal_system 'hexagonal'
loop_
_symmetry_equiv_pos_as_xyz
   'x, y, z'
   'x-y, x, z'
   '-y, x-y, z'
   '-x, -y, z'
   '-x+y, -x, z'
   'y, -x+y, z'
   'x-y, -y, -z'
   '-x, -x+y, -z'
   'y, x, -z'
   '-y, -x, -z'
   '-x+y, y, -z'
   'x, x-y, -z'
   '-x, -y, -z'
   '-x+y, -x, -z'
   'y, -x+y, -z'
   'x, y, -z'
   'x-y, x, -z'
   '-y, x-y, -z'
   '-x+y, y, z'
   'x, x-y, z'
   '-y, -x, z'
   'y, x, z'
   'x-y, -y, z'
   '-x, -x+y, z'
_cell_length_a       31.39000
_cell_length_b       31.39000
_cell_length_c        7.51470
_cell_angle_alpha    90.0000
_cell_angle_beta     90.0000
_cell_angle_gamma   120.0000
_cell_formula_units_Z 108
loop_
_atom_site_label
_atom_site_fract_x
_atom_site_fract_y
_atom_site_fract_z
_atom_site_occupancy
_atom_site_B_iso_or_equiv
o      0.423   0.273   0.254    1.00000    1.000
si      0.383   0.288   0.213    1.00000    1.000
o      0.187   0.093   0.500    1.00000    1.000
o      0.278   0.203   0.000    1.00000    1.000
o      0.579   0.421   0.500    1.00000    1.000
o      0.380   0.297   0.000    1.00000    1.000
o      0.489   0.244   0.262    1.00000    1.000
o      0.398   0.338   0.324    1.00000    1.000
o      0.482   0.387   0.500    1.00000    1.000
si      0.525   0.372   0.500    1.00000    1.000
o      0.418   0.418   0.500    1.00000    1.000
o      0.156   0.156   0.500    1.00000    1.000
o      0.331   0.245   0.288    1.00000    1.000
o      0.518   0.339   0.325    1.00000    1.000
o      0.490   0.301   0.000    1.00000    1.000
si      0.287   0.195   0.210    1.00000    1.000
si      0.424   0.370   0.500    1.00000    1.000
si      0.480   0.290   0.212    1.00000    1.000
o      0.237   0.178   0.324    1.00000    1.000
o      0.300   0.150   0.224    1.00000    1.000
si      0.205   0.152   0.500    1.00000    1.000
_cell_measurement_wavelength    1.541874
_cell_measurement_radiation   'x-rays'
_exptl_crystal_density_diffrn    1.680000
loop_
_pd_peak_d_spacing
_pd_peak_intensity
    27.184537          1.66
    15.695000       1000.00
    13.592268        558.65
    10.274789        107.31
     9.061512         92.04
     7.847500        182.93
     7.539634          1.02
     7.514700        127.98
     7.243054          0.22
     6.796134         11.78
     6.777856          2.03
     6.576525        140.26
     6.236560        172.45
     6.065558         92.06
     5.932152         45.76
     5.784414         13.18
     5.436907         49.46
     5.427535         69.32
     5.322489          0.80
     5.231667         24.67
     5.137395         28.88
     5.040538         55.63
     4.882487          0.08
     4.799117          6.31
     4.656196          5.16
     4.530756          0.41
     4.469110        156.15
     4.404909         71.16
     4.353010        125.50
     4.293617          2.48
     4.241045          9.57
     4.145603          0.05
     4.094205          5.76
     3.923750          3.19
     3.883505         20.28
     3.880085          2.51
     3.841156         42.12
     3.769817          2.58
     3.766689          4.80
     3.757350         34.61
     3.721966          0.27
     3.654098         19.08
     3.629887          2.40
     3.621527        109.85
     3.600680          9.08
     3.528804         72.46
     3.480623          6.41
     3.478161          0.20
     3.470804          0.05
     3.450036         30.01
     3.424930          1.78
     3.398067         19.09
     3.388928         11.56
     3.369588          3.17
     3.362897          0.04
     3.321120         10.20
     3.288263         15.20
     3.247170          0.81
     3.218386          1.70
     3.181709          0.00
     3.174203          0.10
     3.158295          5.32
     3.139000         48.77
     3.118280          1.54
     3.116509          4.88
     3.096229          0.74
     3.091036         45.42
     3.058499          2.57
     3.051830          3.92
     3.037683         16.24
     3.032779         15.84
     3.020504         83.06
     2.977697          2.06
     2.966076          0.00
     2.929912          2.65
     2.896460          1.29
     2.892207          2.03
     2.880157          2.00
     2.875976         79.29
     2.849714          7.69
     2.844317          1.50
     2.832854         12.50
     2.818905          2.62
     2.802583          0.58
     2.784015          1.11
     2.760172          0.04
     2.758943          3.30
     2.718454         22.01
     2.713768          1.11
     2.700346         17.26
     2.678572          0.00
     2.664556         24.25
     2.661244          1.82
     2.639320          1.93
     2.615833          1.07
     2.603806          0.01
     2.599688          1.02
     2.590926          0.08
     2.580242          0.48
     2.568697          0.29
     2.556329         31.82
     2.553404          6.16
     2.531170          2.39
     2.523081          4.15
     2.520269          0.81
     2.513211         13.80
     2.504900          4.49
     2.494333          0.03
     2.488391          1.83
     2.473595          0.00
     2.471322          9.25
     2.470440          2.92
     2.463418          1.85
     2.460301          5.60
     2.441243         12.62
     2.440393          4.52
     2.433624          0.23
     2.430619          1.54
     2.428104          0.23
     2.414351          4.92
     2.412238          0.23
     2.408962          0.46
     2.399559          0.00
     2.393465          0.83
     2.386283          0.02
     2.383450          0.41
     2.377142          0.28
     2.371997          0.42
     2.357198         11.23
     2.354141          1.02
     2.350337          4.02
     2.347629          6.94
     2.328098          0.16
     2.324418          0.45
     2.321800          0.54
     2.307608          0.21
     2.305762          0.17
     2.296804          0.02
     2.280582          0.96
     2.275054          0.11
     2.270543          1.74
     2.265378          1.55
     2.259285          0.39
     2.254867          0.00
     2.251523          1.08
     2.249143          6.26
     2.242143          4.59
     2.234555          0.66
     2.228707          0.00
     2.224465          0.07
     2.212246          0.24
     2.204331          2.03
     2.202454          7.58
     2.192175          0.12
     2.185082          0.33
     2.181084          0.21
     2.176505          0.25
     2.171100          2.09
     2.169562          0.01
     2.168965          6.06
     2.148546         15.40
     2.146809          0.27
     2.143922          3.22
     2.141867          0.02
     2.140146          1.94
     2.129257          0.05
     2.127003          0.38
     2.122197          1.38
     2.120522          0.03
     2.111343          0.38
     2.105004          8.22
     2.091118          0.70
     2.090584          3.35
     2.088983          0.38
     2.086323          0.27
     2.084429          0.28
     2.078853          0.00
     2.072802          0.34
     2.064740          5.08
     2.056264          2.70
     2.054958          2.18
     2.048609          4.64
     2.047102         10.05
     2.033131          0.06
     2.029909          0.02
     2.021853          0.03
     2.020611          0.05
     2.018684          0.03
     2.016284          0.32
     2.014574          0.15
     2.009539          0.00
     2.003600          0.03
     1.999849          2.64
     1.998180          2.27
     1.996782          6.84
     1.982181          0.01
     1.977384          0.79
     1.968150          0.78
     1.965227          1.07
     1.961875          0.03
     1.957914          0.92
     1.956786          0.76
     1.952855          0.02
     1.951301          0.22
     1.941753          3.22
     1.941325          0.01
     1.940043          1.48
     1.937912          0.39
     1.928138          3.19
     1.927061          1.14
     1.925389          5.70
     1.920578          0.12
     1.917449          8.98
     1.913751          0.03
     1.912288          0.00
     1.906358          0.01
     1.898250          0.04
     1.893639          2.89
     1.884908          6.24
     1.883344          0.47
     1.881395          0.98
     1.880005          0.79
     1.878841          3.09
     1.878675         26.69
     1.874205          0.02
     1.872447          0.79
     1.871461          1.10
     1.866661          0.11
     1.865359          2.19
     1.860983          1.13
     1.857922          0.96
     1.854929          0.03
     1.852482          1.58
     1.848037          1.38
     1.845407          3.05
     1.842109          6.28
     1.839556          1.79
     1.836961          2.43
     1.829550          2.19
     1.828272          1.07
     1.827202          1.17
     1.827049          1.19
     1.822937          0.06
     1.820411          0.15
     1.819002          0.44
     1.815993          0.20
     1.814944          0.01
     1.812302          0.27
     1.810764          0.35
     1.809178          0.37
     1.805185          4.21
     1.802929          0.19
     1.800340          0.02
     1.798831          1.19
     1.797277          1.75
     1.796405          4.05
     1.793362          1.05
     1.792159          0.93
     1.791006          0.77
     1.784420          0.00
     1.779599          0.01
     1.775658          1.12
     1.774163         14.18
     1.772021          0.02
     1.769239          0.19
     1.768130          0.17
     1.765825          1.38
     1.764402          0.34
     1.761792          0.03
     1.759240          3.94
     1.753357          0.00
     1.751110          0.22
     1.750796          0.00
     1.749856          1.08
     1.748291          1.21
     1.747176          0.49
     1.743889          7.17
     1.740312          0.65
     1.739080          0.00
     1.737545          0.01
     1.735533          1.89
     1.735402          0.44
     1.731877          3.13
     1.730490          0.15
     1.729711          5.36
     1.725018          1.67
     1.724890          7.18
     1.719004          0.01
     1.716633          0.92
     1.714693          0.14
     1.712465          0.12
     1.711166          0.59
     1.707911          0.01
     1.705419          0.31
     1.699034          0.88
     1.698747          0.43
     1.696459          1.73
     1.695440          0.17
     1.694464          0.02
     1.691182          0.21
     1.689165          1.24
     1.685633          4.85
     1.684794          5.82
     1.681449          0.00
     1.680179          7.82
     1.675170          0.07
     1.670634         14.30
     1.669661          0.05
     1.667488          0.12
     1.665594          0.13
     1.660560          2.81
     1.658156          0.10
     1.657204          0.00
     1.656407          2.43
     1.653227          0.15
     1.651343          7.44
     1.650291          0.12
     1.648043          2.28
     1.647147          0.01
     1.645283          0.11
     1.644131          0.15
     1.642945          0.14
     1.639952          0.24
     1.638260          0.00
     1.635184          0.00
     1.633361          0.56
     1.632342          0.00
     1.627496          0.01
     1.623585          0.67
     1.622335          0.98
     1.621444          1.49
     1.620697          0.16
     1.617719          0.07
     1.615953          0.13
     1.612860          0.06
     1.612020          2.33
     1.609193          0.00
     1.607213          0.29
     1.605274          0.57
     1.600801          0.05
     1.599706          0.89
     1.599090          0.02
     1.598135          0.65
     1.596943          0.69
     1.596093          1.83
     1.595279          7.15
     1.593586         14.20
     1.590855          0.53
     1.590619          0.11
     1.588740          1.13
     1.587202          0.36
     1.587102          0.11
     1.581819          0.00
     1.579839          0.57
     1.579147          0.01
     1.572707          0.01
     1.571214         14.19
     1.569500          3.33
     1.568500          0.35
     1.567470          0.00
     1.566891          1.86
     1.564071          0.38
     1.563304          0.12
     1.559140          0.09
     1.558919          3.78
     1.558255          0.04
     1.556362          0.38
     1.553066          0.11
     1.552065          0.35
     1.551503          0.11
     1.548114          1.52
     1.546474          0.11
     1.545518          3.13
     1.544532          0.51
     1.542045          1.57
     1.540638          8.08
     1.538079          0.12
     1.536561          0.04
     1.536349          0.05
     1.534655          5.13
     1.533901          1.76
     1.529250          0.09
     1.527371          0.01
     1.526628          0.26
     1.525915          0.27
     1.523517          0.58
     1.522572          1.00
     1.519457          0.04
     1.518842          4.72
     1.518754          0.36
     1.516389          0.65
     1.514732          0.18
     1.511779          0.08
     1.510252          0.52
     1.507927          0.00
     1.507126          0.95
     1.506126          0.17
     1.505413          0.12
     1.504730          6.16
     1.503308          0.49
     1.502940          0.00
     1.500648          0.00
     1.499239          1.44
     1.498535          0.02
     1.497945          0.50
     1.496096          0.25
     1.495593          1.55
     1.494197         11.14
     1.493836          3.21
     1.493418          0.08
     1.489703          4.67
     1.488848          2.30
     1.487115          2.32
     1.485743          0.67
     1.484484          0.09
     1.483038          0.03
     1.482684          0.00
     1.482194          0.02
     1.481325          0.19
     1.480836          0.01
     1.480646          0.29
     1.478455          0.72
     1.477808          0.13
     1.476112          1.40
     1.474101          0.61
     1.473941          0.02
     1.472605          0.02
     1.471380          0.21
     1.469150          1.35
     1.468303          1.70
     1.467827          1.00
     1.467484          0.97
     1.467088          0.40
     1.465508          0.78
     1.464956          3.45
     1.461919          2.89
     1.461267          0.20
     1.461111          0.03
     1.459810          0.85
     1.456909          0.02
     1.456444          0.10
     1.455155          0.25
     1.454975          0.01
     1.452895          0.04
     1.451003          0.42
     1.448611          4.26
     1.448230          0.25
     1.446179          0.47
     1.446103          0.18
     1.444515          0.21
     1.443257          0.04
     1.442480          0.60
     1.440603          1.78
     1.440079          0.00
     1.440004          0.08
##############################################################################
###                            Comments                                    ###
##############################################################################
###   Diffraction pattern calculated by Match!. 
###   I/Ic calculated by Match!. 
###   Space group has been derived from given symmetry operations. 
##############################################################################


