##############################################################################
###               Crystal structure data exported by Match!                ###
##############################################################################
###                           Data published by:                           ###
###                                                                        ###
###               COD (Crystallography Open Database)
##############################################################################
data_4124058
_citation_journal_full    'Journal of the American Chemical Society'
_citation_journal_volume  '126'
_citation_page_first  '9769'
_citation_page_last   '9775'
_citation_year  '2004'
_citation_title  'Chemical evaluation of hypothetical uninodal zeolites'
loop_
_publ_author_name
  'Foster M.D.'
  'Friedrichs O.D.'
  'Bell R.G.'
  'Klinowski J.'
  'Paz F.A.A.'
_chemical_formula_sum  'O2 Si'
_chemical_name_common  'Silica'
_symmetry_space_group_name_H-M 'R -3'
_space_group_IT_number 148
_space_group_crystal_system 'trigonal (hexagonal axes)'
loop_
_symmetry_equiv_pos_as_xyz
   'x, y, z'
   'x+0.66667, y+0.33333, z+0.33333'
   'x+0.33333, y+0.66667, z+0.66667'
   '-y, x-y, z'
   '-y+0.66667, x-y+0.33333, z+0.33333'
   '-y+0.33333, x-y+0.66667, z+0.66667'
   '-x+y, -x, z'
   '-x+y+0.66667, -x+0.33333, z+0.33333'
   '-x+y+0.33333, -x+0.66667, z+0.66667'
   '-x, -y, -z'
   '-x+0.66667, -y+0.33333, -z+0.33333'
   '-x+0.33333, -y+0.66667, -z+0.66667'
   'y, -x+y, -z'
   'y+0.66667, -x+y+0.33333, -z+0.33333'
   'y+0.33333, -x+y+0.66667, -z+0.66667'
   'x-y, x, -z'
   'x-y+0.66667, x+0.33333, -z+0.33333'
   'x-y+0.33333, x+0.66667, -z+0.66667'
_cell_length_a       13.75441
_cell_length_b       13.75441
_cell_length_c       19.08780
_cell_angle_alpha    90.0000
_cell_angle_beta     90.0000
_cell_angle_gamma   120.0000
_cell_formula_units_Z 72
loop_
_atom_site_label
_atom_site_fract_x
_atom_site_fract_y
_atom_site_fract_z
_atom_site_occupancy
_atom_site_B_iso_or_equiv
o      0.749   0.459   0.196    1.00000    1.000
o      0.658   0.613   0.383    1.00000    1.000
o      0.798   0.555   0.538    1.00000    1.000
si      0.800   0.671   0.557    1.00000    1.000
o      0.704   0.029   0.732    1.00000    1.000
o      0.543   0.077   0.691    1.00000    1.000
si      0.584   0.985   0.693    1.00000    1.000
si      0.770   0.731   0.404    1.00000    1.000
o      0.800   0.729   0.485    1.00000    1.000
o      0.580   0.082   0.936    1.00000    1.000
o      0.818   0.545   0.400    1.00000    1.000
si      0.760   0.475   0.470    1.00000    1.000
_cell_measurement_wavelength    1.541874
_cell_measurement_radiation   'x-rays'
_exptl_crystal_density_diffrn    2.297000
loop_
_pd_peak_d_spacing
_pd_peak_intensity
    10.105404        140.38
     7.448089        152.30
     6.877205        786.97
     6.362600          9.25
     5.685496       1000.00
     5.052702        633.62
     4.670380        602.33
     4.429710        304.79
     4.381946         24.92
     4.071863         29.68
     3.970556          6.55
     3.724044        181.49
     3.635420         52.83
     3.438602          1.52
     3.368468        153.05
     3.274743        129.31
     3.255304         31.44
     3.213993        495.69
     3.181300         17.98
     3.121948        604.71
     3.025088          7.99
     2.942325         29.99
     2.911715         16.64
     2.887339         66.58
     2.842748        171.08
     2.716266         31.49
     2.705142        203.68
     2.658070          4.31
     2.627151         71.39
     2.599339        168.26
     2.526351          0.94
     2.498142         74.89
     2.482696         20.93
     2.479325         47.18
     2.406280         53.24
     2.371406         12.59
     2.363992          1.79
     2.348029          0.00
     2.339503         28.08
     2.335190          1.03
     2.332384         80.55
     2.311410          5.07
     2.292402          3.30
     2.235601         14.62
     2.222085         11.40
     2.214855          0.17
     2.190973         40.99
     2.156690         96.57
     2.131474         32.92
     2.126086          4.50
     2.120867         10.91
     2.108218         10.82
     2.103004         25.01
     2.087591          5.22
     2.035932         29.32
     2.026681         20.32
     2.021081          0.03
     2.012876         12.90
     2.011078          0.15
     1.985278         19.23
     1.952183         18.84
     1.948041         15.85
     1.939079         46.37
     1.934269         10.66
     1.930240         39.29
     1.918301         32.36
     1.907393          1.76
     1.895165          6.08
     1.884735          9.68
     1.870719         37.97
     1.866312         16.83
     1.862022          0.03
     1.859845          1.14
     1.827061         46.05
     1.817710          6.30
     1.811654         16.30
     1.808342         56.21
     1.805127         33.61
     1.797309         28.76
     1.794076          0.42
     1.784477          2.32
     1.757362         22.20
     1.742399         16.62
     1.735977         42.87
     1.719301          0.31
     1.717130         26.04
     1.697671         17.40
     1.694945          7.55
     1.685850         14.03
     1.684234          7.88
     1.683180         35.15
     1.675247          5.72
     1.665984          0.87
     1.659772         28.80
     1.652751          3.56
     1.645700         11.45
     1.643276         18.77
     1.640286          8.91
     1.637372          0.37
     1.635891         14.16
     1.627652         16.91
     1.619153          2.73
##############################################################################
###                            Comments                                    ###
##############################################################################
###   Diffraction pattern calculated by Match!. 
###   I/Ic calculated by Match!. 
##############################################################################


