##############################################################################
###               Crystal structure data exported by Match!                ###
##############################################################################
###                           Data published by:                           ###
###                                                                        ###
###               COD (Crystallography Open Database)
##############################################################################
data_4307142
_citation_journal_full    'Inorganic Chemistry'
_citation_journal_volume  '46'
_citation_page_first  '2342'
_citation_page_last   '2344'
_citation_year  '2007'
_citation_title  'MH2P2O7 (M = Co, Ni): Metamagnetic Interaction between the Zigzag Octahedral Chains'
loop_
_publ_author_name
  'Tao Yang'
  'Jing Ju'
  'Guobao Li'
  'Sihai Yang'
  'Junliang Sun'
  'Fuhui Liao'
  'Jianhua Lin'
  'Juns Sasaki'
  'Naoki Toyota'
_chemical_formula_sum  'Co2 H4 O14 P2'
_symmetry_space_group_name_H-M 'P 1 21/c 1'
_space_group_IT_number 14
_space_group_crystal_system 'monoclinic'
loop_
_symmetry_equiv_pos_as_xyz
   'x, y, z'
   '-x, y+0.5, -z+0.5'
   '-x, -y, -z'
   'x, -y+0.5, z+0.5'
_cell_length_a        9.16580
_cell_length_b       12.68100
_cell_length_c        9.68820
_cell_angle_alpha    90.0000
_cell_angle_beta    106.7400
_cell_angle_gamma    90.0000
_cell_formula_units_Z 4
loop_
_atom_site_label
_atom_site_fract_x
_atom_site_fract_y
_atom_site_fract_z
_atom_site_occupancy
_atom_site_B_iso_or_equiv
co      0.750   0.755   0.250    1.00000    0.797
co      0.752   0.586   0.004    1.00000    0.821
p      0.523   0.555   0.219    1.00000    0.900
p      0.958   0.961   0.273    1.00000    1.002
p      0.985   0.791   0.064    1.00000    0.955
p      0.507   0.721   0.433    1.00000    0.829
o      0.653   0.611   0.183    1.00000    1.152
o      0.838   0.901   0.319    1.00000    1.271
o      0.454   0.631   0.316    1.00000    1.760
o      0.881   0.718   0.114    1.00000    1.050
o      0.616   0.792   0.386    1.00000    0.984
o      0.897   0.478   0.112    1.00000    1.673
o      0.609   0.468   -0.089    1.00000    1.310
o      0.937   0.685   0.407    1.00000    1.467
o      0.589   0.460   0.313    1.00000    1.846
h      0.520   0.428   0.334    1.00000    2.762
o      0.570   0.825   0.081    1.00000    1.318
o      0.885   1.064   0.199    1.00000    2.580
h      0.943   1.094   0.162    1.00000    3.866
o      0.997   0.898   0.147    1.00000    3.939
o      0.349   0.777   0.411    1.00000    1.743
h      0.347   0.811   0.482    1.00000    2.604
o      1.151   0.747   0.105    1.00000    3.434
h      1.170   0.722   0.034    1.00000    5.131
_cell_measurement_wavelength    1.541874
_cell_measurement_radiation   'x-rays'
_cell_measurement_temperature    290.000000
_exptl_crystal_density_diffrn    2.894000
_exptl_crystal_colour            'purple'
loop_
_pd_peak_d_spacing
_pd_peak_intensity
     8.777369          0.33
     7.487653        332.67
     7.217159       1000.00
     6.489901          0.31
     6.340500         91.39
     5.234793          1.49
     5.139753          1.83
     5.137309         10.54
     4.856534          0.34
     4.698238          0.75
     4.638815         21.66
     4.405589          8.38
     4.388684         37.54
     4.356481          0.32
     4.240637         32.73
     4.205314        303.04
     4.147336          1.55
     3.846572         71.06
     3.808388          1.37
     3.777082          3.62
     3.774855          0.22
     3.743826         33.15
     3.688776          0.91
     3.686066          0.70
     3.669536          2.30
     3.619920          0.13
     3.608580         19.15
     3.539564        134.24
     3.452300        210.63
     3.377931          4.06
     3.244950        577.84
     3.186690          0.31
     3.170250         64.68
     3.142375          1.51
     3.124407          2.79
     3.122909          2.05
     3.122563          0.21
     3.080835        114.73
     3.044496          0.26
     3.004490         10.62
     2.999940          0.97
     2.981721          0.93
     2.969130          0.37
     2.925790          0.41
     2.923259          0.01
     2.883690        134.37
     2.876623          0.35
     2.872508         10.60
     2.850893         18.23
     2.816483          3.04
     2.809532          0.63
     2.805349         34.33
     2.779547          2.58
     2.778134        342.68
     2.761110        125.35
     2.751478         76.41
     2.743016          0.20
     2.735337         15.41
     2.683071          0.88
     2.656593          0.06
     2.627933          0.35
     2.626299          0.58
     2.619624          0.82
     2.617397         13.37
     2.591620          0.65
     2.569877          1.01
     2.568654        111.35
     2.562536          0.04
     2.532843          1.38
     2.495884          0.03
     2.475502          0.11
     2.472061          2.48
     2.469833          0.07
     2.446436         27.07
     2.436525         12.42
     2.428267         12.90
     2.425330          6.38
     2.421304          0.54
     2.405720          9.01
     2.404312          0.04
     2.403561          4.02
     2.393651          3.52
     2.378337        111.01
     2.378164         45.10
     2.375685          1.28
     2.349119         39.42
     2.340257         51.39
     2.339833          2.01
     2.319408          6.92
     2.311641          0.00
     2.309821          0.01
     2.281558          0.16
     2.266123          0.75
     2.261980          0.11
     2.259829          8.91
     2.251779          2.92
     2.249847          1.39
     2.231785          8.76
     2.225320          0.70
     2.215251          0.14
     2.213721          0.36
     2.209414          5.51
     2.207861          2.72
     2.205264          0.00
     2.204684          1.06
     2.202794          6.13
     2.199462          5.97
     2.195895          0.47
     2.194342         22.85
     2.178240          6.43
     2.172101          4.42
     2.164046          0.09
     2.163300          0.14
     2.162209          0.78
     2.152282          1.49
     2.150081          0.10
     2.142665          0.01
     2.130341          0.09
     2.120319          6.98
     2.113836          3.92
     2.113500         47.94
     2.112719         40.49
     2.105566          0.25
     2.102657         71.65
     2.101021          0.05
     2.098131          0.04
     2.089398          5.52
     2.082389          0.01
     2.073668          5.76
     2.071008         11.65
     2.069989          0.99
     2.069149          0.05
     2.060705          3.59
     2.054772          0.00
     2.053337          0.54
     2.048680          1.03
     2.035341          4.01
     2.033406          1.03
     2.029892          0.01
     2.012241         31.03
     2.003382          1.27
     1.992903          2.98
     1.991906          0.01
     1.991157          1.04
     1.986046          0.36
     1.984929          0.01
     1.980716          0.00
     1.978196          0.27
     1.971764          1.82
     1.961064         19.51
     1.954774         80.17
     1.951131          0.10
     1.947554          0.04
     1.927455          0.00
     1.926280          1.79
     1.924261          0.02
     1.923286          2.16
     1.916411         23.46
     1.915770          0.30
     1.912989          0.47
     1.911155          0.02
     1.909444          0.39
     1.904194         33.84
     1.902394          0.26
     1.897139          1.55
     1.888541         38.29
     1.887428          0.51
     1.882601          0.00
     1.879351          1.31
     1.878722          5.23
     1.871913          0.10
     1.867940          0.13
     1.855361          0.16
     1.852919          0.04
     1.847641         14.72
     1.844388          0.10
     1.843564          0.25
     1.843033          8.41
     1.836485          0.11
     1.835976          8.20
     1.834768         33.26
     1.833492          0.00
     1.830563          0.03
     1.825046          0.08
     1.823871          0.01
     1.821028          0.05
     1.815006          0.44
     1.810347          1.50
     1.810026          1.13
     1.809960          1.43
     1.806433          3.60
     1.804913          0.05
     1.804290          0.79
     1.803709          1.28
     1.796284         13.84
     1.793908          0.59
     1.786914          0.09
     1.780835          0.03
     1.777993          1.21
     1.776223          0.25
     1.775232          0.01
     1.774178         19.84
     1.769782         14.68
     1.767247          0.08
     1.761625          0.09
     1.756757          0.03
     1.755474          0.01
     1.753837          0.35
     1.752446          1.73
     1.751343          1.34
     1.751330         78.29
     1.749655          0.37
     1.749148          0.42
     1.747159          0.00
     1.744931          0.65
     1.742978          0.14
     1.738891         29.94
     1.737923         15.45
     1.726150          3.12
     1.724272          0.07
     1.724180          2.24
     1.723425          1.70
     1.720291          0.01
     1.713251          2.26
     1.712436          0.93
     1.711589          0.54
     1.703213          0.05
     1.702476          0.02
     1.699035          1.32
     1.698909         18.67
     1.697380          0.00
     1.695591          2.82
     1.691827          0.01
     1.690272          2.11
     1.689429          0.30
     1.688966          0.76
     1.687459          0.00
     1.683056          0.02
     1.680492          8.18
     1.679808          2.34
     1.675542         12.19
     1.674520          0.46
     1.674328          0.32
     1.673367          0.36
     1.663897          0.50
     1.660606          0.14
     1.660078         31.46
     1.659437          0.06
     1.658234         18.31
     1.651350          1.77
     1.649451         11.33
     1.646432          0.30
     1.641499          0.10
     1.636747          0.08
     1.636206          6.94
     1.633414          0.00
     1.632728         28.93
     1.627137          0.29
     1.625831         16.39
     1.624534          0.04
     1.622475          2.44
     1.621223          0.74
     1.618981          0.01
     1.618845          2.01
     1.617122         20.45
     1.616636          0.19
     1.616236         18.02
     1.612602         33.25
     1.611072          0.76
     1.606246          0.24
     1.603795          0.21
     1.601396          2.18
     1.598225          0.03
     1.593582          0.57
     1.593514         18.75
     1.593345          0.71
     1.592245          0.37
     1.591591          0.18
     1.591120          1.34
     1.588383          9.67
     1.585125          0.14
     1.581679          0.06
     1.580659          7.19
     1.579850          0.01
     1.579107          0.00
     1.575131         20.60
     1.574568         11.94
     1.571187         14.59
     1.566079          0.04
     1.563125          0.08
     1.562484          0.00
     1.562204         17.15
     1.561454          3.21
     1.561282          5.24
     1.559892          0.01
     1.558081          0.45
     1.557060          0.18
     1.556786          0.85
     1.554826          0.00
     1.554271          2.17
     1.552544          0.07
     1.551340          8.72
     1.546272          4.93
     1.545339          9.43
     1.544276          0.88
     1.540418          0.66
     1.540229         14.72
     1.539370          0.20
     1.538560         24.65
     1.537926          0.06
     1.536605          1.78
     1.535747          0.39
     1.534903          0.01
     1.534164          0.03
     1.532924          4.03
     1.530170         17.50
     1.529523          0.30
     1.527012          1.77
     1.525688          0.02
     1.525585          3.31
     1.522512          0.43
     1.522248         16.75
     1.520389          0.30
     1.516059          0.01
     1.514725          0.61
     1.511029          0.00
     1.510488          6.12
     1.506682          0.07
     1.505434          0.01
     1.504676          0.09
     1.504638          0.37
     1.503005          0.25
     1.502245         21.08
     1.501945          0.23
     1.501640          2.49
     1.501494          5.95
     1.500223          0.00
     1.499970          4.27
     1.499491          3.69
     1.497531          4.36
     1.495070          1.25
     1.494157          1.16
     1.490940          1.27
     1.490860          8.38
     1.489515          8.89
     1.489007          0.17
     1.488694          0.11
     1.485613          0.05
     1.484565         10.37
     1.483525          0.20
     1.481369          3.17
     1.480641          0.00
     1.480637          0.02
     1.480531          0.24
     1.479866          0.00
     1.472301          0.02
     1.470646          0.15
     1.470548          1.09
     1.469685          3.66
     1.468530         30.84
     1.464572          0.00
     1.463981          0.08
     1.462895          1.38
     1.461629         12.29
     1.461138          0.00
     1.460090          0.04
     1.459614          0.04
     1.457127          7.67
     1.456386          0.18
     1.456189          0.06
     1.453257          0.45
     1.452993          0.07
     1.452160          0.11
     1.450523          6.06
     1.449921          0.42
     1.445767          0.05
     1.443548          0.45
     1.443432         20.22
     1.441845         12.42
     1.438311          9.45
     1.436254          2.32
     1.436172          0.01
     1.434549          0.50
     1.432832          1.53
     1.431091          0.16
     1.429148          0.39
     1.427701          0.10
     1.425772          7.61
     1.425446          0.32
     1.425060          1.80
     1.422688          0.08
     1.422400          0.07
     1.422331          0.22
     1.420627          0.08
     1.420317          0.12
     1.419011          0.44
     1.417511          5.98
     1.416281          0.24
     1.413546          0.21
     1.411015          0.01
     1.410619          0.01
     1.409099          3.79
     1.408241          9.30
     1.406909          1.13
     1.404766         15.74
     1.404102          0.21
     1.402674          1.48
     1.401771          0.02
     1.399668          0.05
     1.397506          1.20
     1.397393          0.29
     1.397389          0.09
     1.397010          0.26
     1.396719          0.03
     1.396225          0.00
     1.394392          0.13
     1.393723          0.02
     1.393027          0.00
     1.391189          1.35
     1.389773         26.07
     1.389067          6.38
     1.388303          1.55
     1.387292          0.56
     1.385112          0.06
     1.383391         20.05
     1.382445          0.22
     1.381317          0.00
     1.380962         15.07
     1.380637          3.90
     1.380555          4.61
     1.380098          0.31
     1.377575          0.50
     1.376783          6.00
     1.375739         14.06
     1.375714          0.87
     1.374080         24.34
     1.372932          0.01
     1.371508          0.39
     1.371185          5.80
     1.370940          0.05
     1.367668          1.33
     1.366688          0.00
     1.365962          0.27
     1.364955          2.20
     1.364937          5.27
     1.363873          2.99
     1.363038          0.87
     1.362146          0.01
     1.361643          0.00
     1.359897          0.03
     1.359310          0.30
     1.359084          0.66
     1.356991          6.92
     1.356116          0.01
     1.355812          0.00
     1.355512          3.96
     1.353066          0.16
     1.352317          2.06
     1.352052          0.21
     1.351290          0.89
     1.350406          0.29
     1.349614         14.80
     1.348181          0.00
     1.346295          1.27
     1.345584          1.12
     1.345233          1.14
     1.344620          3.64
     1.342251          4.09
     1.341835          0.07
     1.341555          0.10
     1.341535          4.02
     1.341461         18.80
     1.339166          0.37
     1.336255          2.50
     1.334795          0.00
     1.333435          0.85
     1.333137          7.84
     1.333078          0.05
     1.332510          0.17
     1.328296          0.14
     1.326208          0.03
     1.326196          3.00
     1.325297          0.34
     1.324094          0.01
     1.321328          0.14
     1.320871          0.11
     1.320245          0.00
     1.320137          1.22
     1.318195          0.15
     1.317230          0.39
     1.316125          6.35
     1.315191          3.84
     1.313966          3.51
     1.313150          3.22
     1.312482          0.02
     1.311491          1.30
     1.309812          0.86
     1.309176          0.01
     1.308698          0.00
##############################################################################
###                            Comments                                    ###
##############################################################################
###   Diffraction pattern calculated by Match!. 
###   I/Ic calculated by Match!. 
##############################################################################


