##############################################################################
###               Crystal structure data exported by Match!                ###
##############################################################################
###                           Data published by:                           ###
###                                                                        ###
###               COD (Crystallography Open Database)
##############################################################################
data_1514239
_citation_journal_full    'Journal of Solid State Chemistry'
_citation_journal_volume  '177'
_citation_page_first  '4706'
_citation_page_last   '4723'
_citation_year  '2004'
_citation_title  'On the structural defects in synthetic gamma-(Mn O2)s'
loop_
_publ_author_name
  'Hill L. I.'
  'Verbaere A.'
_chemical_formula_sum  'Mn O2'
_chemical_name_common  'Manganese(IV) Oxide - Gamma'
_symmetry_space_group_name_H-M 'C 1 2/m 1'
_space_group_IT_number 12
_space_group_crystal_system 'monoclinic'
loop_
_symmetry_equiv_pos_as_xyz
   'x, y, z'
   'x+0.5, y+0.5, z'
   '-x, y, -z'
   '-x+0.5, y+0.5, -z'
   '-x, -y, -z'
   '-x+0.5, -y+0.5, -z'
   'x, -y, z'
   'x+0.5, -y+0.5, z'
_cell_length_a       13.70000
_cell_length_b        2.86700
_cell_length_c        4.46000
_cell_angle_alpha    90.0000
_cell_angle_beta     90.5000
_cell_angle_gamma    90.0000
_cell_formula_units_Z 6
loop_
_atom_site_label
_atom_site_fract_x
_atom_site_fract_y
_atom_site_fract_z
_atom_site_occupancy
_atom_site_B_iso_or_equiv
mn      0.000   0.000   0.000    1.00000    1.000
mn      0.661   0.000   0.506    1.00000    1.000
o      0.447   0.000   0.768    1.00000    1.000
o      0.890   0.000   0.260    1.00000    1.000
o      0.783   0.000   0.726    1.00000    1.000
_cell_measurement_wavelength    1.541874
_cell_measurement_radiation   'x-rays'
_exptl_crystal_density_diffrn    4.944000
loop_
_pd_peak_d_spacing
_pd_peak_intensity
     6.849739         28.62
     4.459830        427.96
     3.752448        936.18
     3.722621       1000.00
     3.424870         12.00
     2.806206          0.35
     2.727854        477.36
     2.704952        486.84
     2.428113        582.25
     2.377061        524.80
     2.373233        454.74
     2.283246        273.73
     2.229915         90.93
     2.136706        509.53
     2.128395         19.09
     2.125851          3.97
     2.114958          0.78
     2.039616         12.36
     2.025227        221.83
     1.980809          7.58
     1.876224          0.10
     1.861310          3.31
     1.814540        109.05
     1.806066        163.31
     1.747351          5.59
     1.744311          1.68
     1.712435          2.94
     1.646204        508.47
     1.638610        464.44
     1.616381          7.69
     1.603329         30.65
     1.602314        185.83
     1.593992         29.64
     1.588396        205.90
     1.523172        175.04
     1.516155        137.52
     1.486610          8.03
     1.485577          1.68
     1.476299          3.42
     1.455423         19.29
     1.450168         31.48
     1.433500        192.73
     1.403103          0.43
     1.369948          1.16
     1.368051         48.91
     1.364734         17.18
     1.363927          6.95
     1.359358         31.37
     1.352476          0.96
     1.344428        271.50
     1.339113         53.58
     1.337743         59.00
     1.322342          0.84
     1.314632         85.45
     1.313230          3.91
     1.312777         42.12
     1.312690         58.26
     1.306362         35.59
     1.304265          0.11
     1.289963         13.91
     1.284479          8.11
     1.270483          0.08
     1.268954         56.59
     1.266626         56.72
     1.265243         54.19
     1.250816         23.90
     1.240874          0.08
     1.214057         52.97
     1.205834         25.61
     1.192617         23.21
     1.188530          0.74
     1.186617          0.10
     1.185414         30.23
     1.172809          0.65
     1.171836          3.25
     1.170053         38.00
     1.162749          0.92
     1.155303         19.41
     1.147455         20.21
     1.142288          6.08
     1.141623         14.99
     1.139081          0.09
     1.135718          0.68
     1.127485          6.30
     1.117785         13.11
     1.114958         59.06
     1.108703         12.42
     1.108290         10.41
     1.104445         11.58
     1.103652          0.13
     1.102000          0.37
     1.099200          1.06
     1.098955          0.01
     1.098148         30.34
     1.090289         25.76
     1.068653         11.58
     1.068353         67.32
     1.065875         11.72
     1.064197         75.53
     1.062926          2.48
     1.057479          0.38
     1.036804          0.01
     1.031903          3.88
     1.021300         10.01
     1.019979          2.78
     1.019808         32.27
     1.019480         16.34
     1.015029         23.96
     1.013375          0.81
     1.012614         32.00
     1.011831         21.78
     1.011463         31.52
##############################################################################
###                            Comments                                    ###
##############################################################################
###   Diffraction pattern calculated by Match!. 
###   I/Ic calculated by Match!. 
###   Space group has been derived from given symmetry operations. 
##############################################################################


