##############################################################################
###               Crystal structure data exported by Match!                ###
##############################################################################
###                           Data published by:                           ###
###                                                                        ###
###               COD (Crystallography Open Database)
##############################################################################
data_9004483
_citation_journal_full    'The Canadian Mineralogist'
_citation_journal_volume  '36'
_citation_page_first  '1053'
_citation_page_last   '1060'
_citation_year  '1998'
_citation_title  'Rigid-body character of the SO4 groups in celestine, anglesite andbarite'
loop_
_publ_author_name
  'Jacobsen S. D.'
  'Smyth J. R.'
  'Swope R. J.'
  'Downs R. T.'
_chemical_formula_sum  'O4 S Sr'
_chemical_name_mineral  'Celestine'
_symmetry_space_group_name_H-M 'P b n m'
_space_group_IT_number 62
_space_group_crystal_system 'orthorhombic'
loop_
_symmetry_equiv_pos_as_xyz
   'x, y, z'
   '-x, -y, z+0.5'
   'x+0.5, -y+0.5, -z'
   '-x+0.5, y+0.5, -z+0.5'
   '-x, -y, -z'
   'x, y, -z+0.5'
   '-x+0.5, y+0.5, z'
   'x+0.5, -y+0.5, z+0.5'
_cell_length_a        6.86710
_cell_length_b        8.35450
_cell_length_c        5.34580
_cell_angle_alpha    90.0000
_cell_angle_beta     90.0000
_cell_angle_gamma    90.0000
_cell_formula_units_Z 4
loop_
_atom_site_label
_atom_site_fract_x
_atom_site_fract_y
_atom_site_fract_z
_atom_site_occupancy
_atom_site_B_iso_or_equiv
sr      0.158   0.184   0.250    1.00000    0.906
s      0.185   0.438   0.750    1.00000    0.646
o      0.092   0.595   0.750    1.00000    1.613
o      0.042   0.307   0.750    1.00000    1.308
o      0.311   0.422   0.974    1.00000    1.079
_cell_measurement_wavelength    1.541874
_cell_measurement_radiation   'x-rays'
_exptl_crystal_density_diffrn    3.978000
loop_
_pd_peak_d_spacing
_pd_peak_intensity
     5.304994          0.29
     4.218313         97.03
     4.177250         46.50
     3.765542        338.92
     3.568829         15.60
     3.433550        260.61
     3.291523        940.18
     3.175803        541.70
     2.968173       1000.00
     2.730340        636.54
     2.672900        498.82
     2.652497         12.81
     2.580700         62.80
     2.387031         34.22
     2.376082        164.15
     2.324059          2.55
     2.251439        138.85
     2.207668         42.58
     2.162866         63.38
     2.139391        252.89
     2.109156          9.76
     2.104242          0.07
     2.088625         11.99
     2.044994        482.89
     2.040514        381.74
     2.007400         32.84
     2.004980        321.95
     1.998243        382.05
     1.945413        140.52
     1.882771          6.85
     1.879272          0.15
     1.871753          0.00
     1.856570         56.35
     1.784415          1.24
     1.768331        173.33
     1.724810         34.00
     1.716775         30.44
     1.702147          4.38
     1.692609          0.53
     1.689187         28.46
     1.681637         41.32
     1.681356          0.08
     1.678864         83.07
     1.645761          0.40
     1.639034         71.65
     1.623531         17.71
     1.605134          5.32
     1.604140         39.05
     1.600441        127.80
     1.594253         98.06
     1.587901         11.51
     1.554020        115.66
     1.553469         18.96
     1.542876          6.15
     1.522169         21.90
     1.502442          9.86
     1.484087          0.60
     1.482371          0.60
     1.479148         18.27
     1.474795        191.52
     1.466342          4.40
     1.461395          0.10
     1.446402         58.59
     1.444487         33.97
     1.423369         94.26
     1.409670         22.61
     1.406104          0.00
     1.392417          1.46
     1.387613         37.64
     1.386603         73.77
     1.375294         74.80
     1.365170         12.56
     1.364646          1.28
     1.355608         47.38
     1.355229          0.77
     1.349591         40.92
     1.347458         53.06
     1.336450         80.05
     1.336240          0.17
     1.332632          0.06
     1.330220         41.77
     1.329942          0.55
     1.326249          0.74
     1.322244         87.44
     1.313673          0.08
     1.309714          1.17
     1.308535         54.05
     1.304710         14.58
     1.295958          0.07
     1.290350          0.13
     1.287226         34.00
     1.282256         19.09
     1.272891          4.85
     1.267505         57.36
     1.260894          0.69
     1.255181         43.61
     1.254327          7.64
     1.251572          5.14
     1.245433         15.32
     1.234901         19.49
     1.231821         52.73
     1.231767          4.05
     1.223018         27.21
     1.215405          4.48
     1.208738          6.60
     1.204732        102.83
     1.200315         12.23
     1.200111          9.49
     1.197395          0.66
     1.193515          0.15
     1.189610          0.24
     1.188041          1.02
     1.186757         11.97
     1.185503          9.98
     1.175873          0.03
     1.172484         29.78
     1.168442         15.95
     1.166410          0.32
     1.162029          5.03
     1.161206          0.34
     1.148641         19.60
     1.148419          4.78
     1.147549         48.70
     1.144517         22.48
     1.143280          3.33
     1.136917          4.94
     1.133926          0.63
     1.129985         10.03
     1.127336         35.70
     1.125720          1.26
     1.121989          0.39
     1.118693          7.64
     1.112458          4.98
     1.110892         79.45
     1.109246          0.29
     1.103834          3.61
     1.103075         12.99
     1.097174         23.32
     1.092756          1.27
     1.087808         21.77
     1.086829          0.15
     1.083433         32.27
     1.081433          4.28
     1.081029         46.77
     1.078702          0.03
     1.076324          1.71
     1.075852         34.82
     1.069695          0.20
     1.066200         54.91
     1.063915         17.58
     1.060999          0.05
     1.059962          7.19
     1.058601          0.34
     1.058287          0.49
     1.056433          1.39
     1.054578         10.49
     1.054475         60.02
     1.052699         28.80
     1.052121         20.93
     1.048086          7.43
     1.046276         19.64
     1.045113          4.18
     1.044312         27.34
     1.043876          0.00
     1.040699          7.24
     1.038728         48.01
     1.038436          3.69
     1.038139         30.07
     1.035772         25.37
     1.032442          1.18
     1.031826          8.61
     1.024939          1.07
     1.024187         31.85
     1.022497          5.61
     1.020257         11.89
     1.013710          7.31
     1.013279         14.79
     1.013249         12.63
     1.010171          1.26
##############################################################################
###                            Comments                                    ###
##############################################################################
###   Diffraction pattern calculated by Match!. 
###   I/Ic calculated by Match!. 
###   Space group has been derived from given symmetry operations. 
##############################################################################


