##############################################################################
###               Crystal structure data exported by Match!                ###
##############################################################################
###                           Data published by:                           ###
###                                                                        ###
###               COD (Crystallography Open Database)
##############################################################################
data_2012674
_citation_journal_full    'Acta Crystallographica Section C'
_citation_journal_volume  '58(5)'
_citation_page_first  'i55'
_citation_page_last   'i60'
_citation_year  '2002'
_citation_title  'Copper(II) hypophosphite: the \a- and \b-forms at 270 and 100K, and the \g-form at 270K'
loop_
_publ_author_name
  'Naumov Dmitry Yu.'
  'Naumova Marina I.'
  'Kuratieva Natalia V.'
  'Boldyreva Elena V.'
  'Howard Judith A. K.'
_chemical_formula_sum  'Cu H4 O4 P2'
_chemical_name_common  'Copper(II) Hypophosphite'
_symmetry_space_group_name_H-M 'P b c a'
_space_group_IT_number 61
_space_group_crystal_system 'orthorhombic'
loop_
_symmetry_equiv_pos_as_xyz
   'x, y, z'
   '-x+0.5, -y, z+0.5'
   'x+0.5, -y+0.5, -z'
   '-x, y+0.5, -z+0.5'
   '-x, -y, -z'
   'x+0.5, y, -z+0.5'
   '-x+0.5, y+0.5, z'
   'x, -y+0.5, z+0.5'
_cell_length_a        5.30140
_cell_length_b        6.23190
_cell_length_c       14.24270
_cell_angle_alpha    90.0000
_cell_angle_beta     90.0000
_cell_angle_gamma    90.0000
_cell_formula_units_Z 4
loop_
_atom_site_label
_atom_site_fract_x
_atom_site_fract_y
_atom_site_fract_z
_atom_site_occupancy
_atom_site_B_iso_or_equiv
cu      0.000   0.000   0.000    1.00000    0.574
p      0.456   0.108   0.131    1.00000    0.620
h      0.480   0.214   0.211    1.00000    0.708
h      0.573   -0.066   0.145    1.00000    0.631
o      0.176   0.067   0.117    1.00000    0.750
o      0.602   0.218   0.052    1.00000    0.716
_cell_measurement_wavelength    1.541874
_cell_measurement_radiation   'x-rays'
_cell_measurement_temperature    100.000000
_exptl_crystal_density_diffrn    2.732000
_exptl_crystal_colour            'Blue'
loop_
_pd_peak_d_spacing
_pd_peak_intensity
     7.121350       1000.00
     4.252447         90.72
     3.884861        177.87
     3.560675         10.16
     3.512589        217.58
     3.115950         85.58
     3.075879        594.89
     3.043956        131.39
     2.955847          6.91
     2.854648         58.41
     2.670665         11.50
     2.650700        139.54
     2.639760         17.73
     2.604993         84.98
     2.513425         37.90
     2.484192         77.74
     2.439219          6.02
     2.404216          0.07
     2.373783         28.86
     2.344874          8.58
     2.337984         26.30
     2.327653        193.03
     2.307607         20.24
     2.169611          1.93
     2.166512         38.07
     2.144467          8.99
     2.126224         16.39
     2.102415         20.41
     2.046376          0.28
     2.018987         29.86
     2.012323          5.38
     1.999003         13.81
     1.954341         10.44
     1.942431         60.65
     1.916528        155.95
     1.888263         42.50
     1.866504          7.26
     1.857957          6.30
     1.852760          2.19
     1.817034         17.12
     1.791183         33.49
     1.780337         46.47
     1.778797          0.27
     1.768344         38.35
     1.756295         47.02
     1.715117          2.19
     1.703629          7.68
     1.701182          3.04
     1.699571          6.30
     1.688120          8.79
     1.687711          1.01
     1.653634          8.58
     1.647196          7.78
     1.635034          3.73
     1.629030          3.60
     1.624365          0.97
     1.621939          5.63
     1.600573         92.60
     1.600128         20.49
     1.593571          1.25
     1.582913          3.78
     1.562451          0.02
     1.557975          1.70
     1.548737          2.36
     1.545923          0.03
     1.545810         48.86
     1.537939         40.22
     1.534196          0.88
     1.528268          2.23
     1.521978         23.65
     1.502539          2.12
     1.499420         18.74
     1.486599          6.44
     1.485868          0.11
     1.484010          0.02
     1.480305          1.24
     1.477924         26.45
     1.473409         22.86
     1.462885          3.12
     1.462401          8.33
     1.459863         61.21
     1.438038          5.43
     1.433153          0.78
     1.427324         42.74
     1.425766          0.87
     1.424270          1.35
     1.418040          4.25
     1.417482          8.72
     1.411254          2.03
     1.410977          8.47
     1.401829         32.23
     1.382179          7.29
     1.378245          0.31
     1.375495          2.96
     1.366886          5.31
     1.363510          3.41
     1.352752          1.86
     1.346526          0.12
     1.343166          3.21
     1.343151          1.60
     1.340021         19.53
     1.337218          0.01
     1.335333         22.28
     1.327594          0.79
     1.325350          4.34
     1.323598          2.10
     1.322575         14.63
     1.319880         20.62
     1.309886          0.46
     1.304622          3.19
     1.302977          4.01
     1.302497          4.32
     1.296358          1.75
     1.295363         14.34
     1.294954         10.22
     1.292424          0.02
     1.291021          6.46
     1.290250          0.59
     1.275398          0.54
     1.274514          1.67
     1.264880          0.20
     1.259038          0.13
     1.258344          0.59
     1.256713         40.51
     1.254627          1.86
     1.254194          0.00
     1.250574          4.96
     1.245512          5.25
     1.242096          2.76
     1.236988          3.25
     1.232956         36.22
     1.229949          0.33
     1.229541          0.01
     1.226484          5.42
     1.224786         14.56
     1.219610          9.95
     1.218136          5.98
     1.216971         11.17
     1.215163          0.56
     1.214870          0.62
     1.208921         20.18
     1.204630          0.20
     1.204241          0.04
     1.202108         17.36
     1.196064          0.92
     1.195671          1.66
     1.186892          0.41
     1.181255          0.09
     1.179916          5.44
     1.175518          0.66
     1.172437          0.01
     1.170863          6.34
     1.168992          6.89
     1.166373          0.49
     1.164728          1.53
     1.163827          9.31
     1.163481          0.43
     1.158352          2.29
     1.158220          0.24
     1.157200          7.67
     1.153803         11.02
     1.153217          5.69
     1.148456          0.22
     1.146863          3.90
     1.144776          0.16
     1.143653          0.04
     1.138720          2.10
     1.137751          0.22
     1.137123          0.36
     1.134768          0.05
     1.127913          1.26
     1.124393          1.05
     1.122588         13.98
     1.121168          1.53
     1.120939          0.01
     1.117310          6.72
     1.116260          2.96
     1.114027          0.22
     1.113888          0.31
     1.110367          0.13
     1.110232          0.69
     1.109152          3.37
     1.108927          1.78
     1.103807          0.09
     1.102618          1.23
     1.097369          1.49
     1.093305          3.27
     1.091777          2.19
     1.089918          0.15
     1.087597          0.04
     1.086658          0.27
     1.085646          0.01
     1.084806          7.24
     1.083256          0.51
     1.081190          0.15
     1.080358          2.03
     1.075948          1.74
     1.075255          0.72
     1.073948          2.51
     1.073677          0.08
     1.072233          0.52
     1.067253          0.00
     1.066057          8.12
     1.063112          9.19
     1.057364          8.99
     1.051207          4.36
     1.048720          1.85
     1.048695          0.02
     1.048470          1.33
     1.047972          4.60
     1.046077          0.36
     1.044738          0.03
     1.042456          9.46
     1.042087         26.47
     1.040156          1.04
     1.038650          0.00
     1.035899          0.39
     1.034179          0.22
     1.033565          3.85
     1.031132          0.38
     1.030071         16.23
     1.027776          3.04
     1.025293          8.48
     1.024036          0.34
     1.023188          7.37
     1.020811          7.02
     1.018758          0.08
     1.017336          2.68
     1.016672          0.24
     1.016184          0.10
     1.015932         18.19
     1.015058          0.40
     1.014652          0.02
     1.014465          0.44
     1.013382          0.07
     1.011604          0.49
     1.010924          0.01
     1.009494          0.66
     1.008989          0.80
     1.008266          0.04
     1.006968          0.10
##############################################################################
###                            Comments                                    ###
##############################################################################
###   Diffraction pattern calculated by Match!. 
###   I/Ic calculated by Match!. 
##############################################################################


