##############################################################################
###               Crystal structure data exported by Match!                ###
##############################################################################
###                           Data published by:                           ###
###                                                                        ###
###               COD (Crystallography Open Database)
##############################################################################
data_9010054
_citation_journal_full    'American Mineralogist'
_citation_journal_volume  '90'
_citation_page_first  '1563'
_citation_page_last   '1570'
_citation_year  '2005'
_citation_title  'Light-induced degradation dynamics in realgar: in situ structuralinvestigation using single crystal X-ray diffraction and X-ray photoelectronspectroscopy Sample: Getchell mine, Nevada'
loop_
_publ_author_name
  'Kyono A.'
  'Kimata M.'
  'Hatta T.'
_chemical_formula_sum  'As S'
_chemical_name_mineral  'Realgar'
_symmetry_space_group_name_H-M 'P 1 21/n 1'
_space_group_IT_number 14
_space_group_crystal_system 'monoclinic'
loop_
_symmetry_equiv_pos_as_xyz
   'x, y, z'
   '-x+0.5, y+0.5, -z+0.5'
   '-x, -y, -z'
   'x+0.5, -y+0.5, z+0.5'
_cell_length_a        9.32700
_cell_length_b       13.56300
_cell_length_c        6.59000
_cell_angle_alpha    90.0000
_cell_angle_beta    106.4600
_cell_angle_gamma    90.0000
loop_
_atom_site_label
_atom_site_fract_x
_atom_site_fract_y
_atom_site_fract_z
_atom_site_occupancy
_atom_site_B_iso_or_equiv
as      0.121   -0.021   0.763    1.00000    3.300
as      0.424   0.139   0.856    1.00000    3.205
as      0.321   0.126   0.178    1.00000    3.197
as      0.040   0.161   0.715    1.00000    3.387
s      0.344   -0.006   0.701    1.00000    3.363
s      0.214   -0.023   0.115    1.00000    3.363
s      0.238   0.226   0.639    1.00000    3.474
s      0.107   0.210   0.052    1.00000    3.513
_cell_measurement_wavelength    1.541874
_cell_measurement_radiation   'x-rays'
_exptl_crystal_density_diffrn    3.555000
loop_
_pd_peak_d_spacing
_pd_peak_intensity
     7.467106         81.95
     6.781500         58.89
     6.029055        418.02
     5.728544        445.49
     5.509261        260.22
     5.403977       1000.00
     4.623436        100.58
     4.585427         21.86
     4.505824         12.33
     4.472379          0.57
     4.343888          0.02
     4.247417         41.89
     4.068331        211.12
     4.034894         29.15
     3.798568         38.52
     3.733553         69.98
     3.677026         48.95
     3.617028          5.35
     3.610168         90.73
     3.390750          4.92
     3.219366         23.81
     3.193860         10.90
     3.179500        298.54
     3.170588        234.93
     3.159964        399.54
     3.154143         29.08
     3.102255         15.39
     3.077540         62.98
     3.050672        313.24
     3.014528          1.01
     2.987879        189.58
     2.976312         62.93
     2.957332        220.98
     2.955419          0.45
     2.942719        144.48
     2.925718        483.82
     2.912052         14.96
     2.864272         82.02
     2.782127        103.79
     2.754631         13.89
     2.729428        112.89
     2.726328        388.08
     2.701989         90.67
     2.690638        132.15
     2.658212          2.30
     2.654100         55.12
     2.635182          2.62
     2.595858        157.02
     2.590017         20.65
     2.544614          8.42
     2.528805         20.31
     2.516387        116.42
     2.508104         15.61
     2.492693          2.24
     2.489035        122.30
     2.473751        142.13
     2.442673         86.99
     2.403997         41.33
     2.395725         82.53
     2.359818         59.47
     2.346491          0.26
     2.343662         14.65
     2.334673          0.05
     2.319334          6.84
     2.311718          5.12
     2.298137         23.00
     2.292713         12.88
     2.292031          0.25
     2.288834          0.12
     2.267880          0.69
     2.260642          1.61
     2.260500        118.75
     2.252912          0.20
     2.239062         44.56
     2.236190         17.03
     2.228217         99.29
     2.206402         18.24
     2.199737         17.34
     2.193940        108.24
     2.191598         85.36
     2.171944         27.69
     2.165788         61.05
     2.149057          1.83
     2.133598          2.57
     2.132356         85.90
     2.129044        100.25
     2.128446          5.86
     2.123709         42.20
     2.116618         37.03
     2.106481         35.77
     2.091982          0.76
     2.087419          0.43
     2.081682         25.04
     2.080702          1.83
     2.067946          1.25
     2.058252          0.18
     2.054462         41.48
     2.044804          3.57
     2.043522         15.31
     2.034166         37.44
     2.027518          5.17
     2.027128          2.15
     2.017447         22.80
     2.016418          0.10
     2.011807          0.78
     2.009685         17.45
     2.006469         18.57
     2.004401          2.51
     1.997277          9.15
     1.987980         10.89
     1.981944         40.11
     1.973805         19.42
     1.945872          6.00
     1.932022          3.51
     1.929520         27.41
     1.928601          0.59
     1.926855          4.13
     1.922546          1.88
     1.917785          1.88
     1.912713         12.51
     1.909515          4.16
     1.899284          7.84
     1.895865          4.24
     1.893653          5.97
     1.867097         16.86
     1.866776          6.69
     1.865400         16.65
     1.862433         41.47
     1.862131          3.35
     1.858086         71.64
     1.854460        104.93
     1.852468          8.61
     1.848003         23.73
     1.844654          2.59
     1.842630         11.83
     1.841985          5.05
     1.838513         61.80
     1.836420          2.68
     1.819221          0.00
     1.816229         89.00
     1.815181          0.64
     1.808514          3.91
     1.805084         14.92
     1.801326         15.27
     1.798596         85.49
     1.794754         11.58
     1.789406         24.54
     1.784777          3.48
     1.784468         53.51
     1.777896          0.57
     1.776597         19.77
     1.773867          2.21
     1.773590          3.21
     1.765508         39.89
     1.764046         10.44
     1.763071         14.33
     1.751042         13.05
     1.749393          0.93
     1.745027         15.03
     1.730033          4.76
     1.729776         15.04
     1.728836         39.35
     1.725469          3.65
     1.724382         19.00
     1.712701         13.55
     1.705836         95.38
     1.695375         36.32
     1.694704         50.96
     1.687708          4.11
     1.685282          0.71
     1.680879         34.79
     1.678647         98.89
     1.676402         25.78
     1.673148         74.56
     1.669066          5.05
     1.667224          3.01
     1.665719         10.99
     1.663821         24.94
     1.663685         24.18
     1.663456          4.36
     1.663321          0.20
     1.659084         22.41
     1.651785          2.11
     1.643138         19.02
     1.637480          2.20
     1.635568         17.48
     1.634394         47.46
     1.632075          4.14
     1.631211          3.36
     1.629927         12.32
     1.625592          7.55
     1.624659         12.89
     1.621529          7.23
     1.620900         25.27
     1.614797          0.06
     1.612910          0.30
     1.610063          0.72
     1.609683         10.58
     1.606590          0.16
     1.606179          4.59
     1.597210         11.29
     1.596930          1.50
     1.595436          7.19
     1.595033         31.75
     1.591657          0.01
     1.590167          1.87
     1.589750          3.82
     1.585294          5.39
     1.584679          0.70
     1.582992          3.86
     1.582436          1.43
     1.582239          5.23
     1.579982          0.03
     1.579135         12.92
     1.577072         37.23
     1.575451          0.61
     1.574355         22.64
     1.573672          0.10
     1.569369          5.13
     1.564249          0.00
     1.563318          3.65
     1.562939         12.44
     1.560070         12.20
     1.553193          6.34
     1.551128         14.97
     1.545139         19.76
     1.544304          0.05
     1.542526          0.02
     1.541145          1.15
     1.539534          1.03
     1.538770          4.76
     1.538553          6.53
     1.537039          5.49
     1.528476          4.17
     1.526324          3.03
     1.525336          0.23
     1.518861          0.03
     1.517998         14.48
     1.515780         18.24
     1.513845          1.76
     1.513501          4.29
     1.513442         35.30
     1.507264         31.61
     1.506689          2.40
     1.505990          0.33
     1.504646          4.81
     1.502458         30.82
     1.501941         15.83
     1.498042         19.47
     1.493939         14.39
     1.493587          5.05
     1.493421          0.55
     1.491523          3.91
     1.491071          2.39
     1.490793          0.60
     1.488586          2.05
     1.488156          0.69
     1.486057          4.09
     1.481909          4.40
     1.481868          0.33
     1.479884          9.79
     1.478666          8.95
     1.477710          0.23
     1.476638         22.54
     1.474477          0.38
     1.473781          4.80
     1.473118          2.14
     1.471359          7.19
     1.468680          0.91
     1.468422         30.29
     1.465901          1.58
     1.464351          0.51
     1.462859         50.15
     1.462020          1.33
     1.461011          0.00
     1.456522          6.00
     1.456026          3.46
     1.452292          5.24
     1.451862         11.46
     1.451559         32.82
     1.451063          7.98
     1.447963          0.22
     1.445293         10.49
     1.443742         13.92
     1.442466          5.09
     1.441056         10.67
     1.438767          0.23
     1.433999          0.48
     1.432136          5.82
     1.431665          2.14
     1.429891          0.90
     1.428106         29.34
     1.426101         13.78
     1.420897          0.35
     1.415806          0.04
     1.413826          0.20
     1.413651          4.84
     1.413206          0.03
     1.411650          2.42
     1.411242          9.95
     1.405406         11.89
     1.402942          9.27
     1.402805          0.73
     1.401808          3.36
     1.394867          1.63
     1.393444          0.20
     1.392777          8.62
     1.391813          2.09
     1.391330          3.76
     1.391064          1.53
     1.389430          3.64
     1.389030          7.85
     1.382332          0.17
     1.382070          0.45
     1.377315          0.58
     1.375317          0.03
     1.372600          0.07
     1.372090          1.22
     1.371688          0.00
     1.369956          1.29
     1.369836         18.05
     1.368104          2.26
     1.368061          1.29
     1.367680         18.86
     1.366654          0.34
     1.365624          5.50
     1.365273          2.74
     1.364714          0.33
     1.363164          2.98
     1.361898          0.32
     1.360625          0.47
     1.360234          1.41
     1.360108          1.88
     1.356300          0.85
     1.356110          2.60
     1.351134          0.18
     1.350994          3.66
     1.347949          9.15
     1.347490          0.21
     1.347128          0.03
     1.345319          2.35
     1.344965          0.18
     1.343827          0.58
     1.341508          1.68
     1.340972          0.62
     1.340045          1.99
     1.334537          0.39
     1.334184          1.54
     1.332637          0.67
     1.331628          0.05
     1.329550          8.86
     1.329106          0.40
     1.327683          3.83
     1.327625          2.56
     1.327050         20.49
     1.326106          8.85
     1.326061          0.00
     1.323231          2.92
     1.322929          3.69
     1.321367          0.04
     1.321038          0.00
     1.320783          2.37
     1.317591          0.27
     1.317531          8.17
     1.315708          1.34
     1.314497          0.12
     1.314384          0.15
     1.313401          0.99
     1.311820          7.29
     1.311013          0.81
     1.309539          0.02
     1.309316          0.85
     1.308492         13.08
     1.306488          0.00
     1.304063          0.00
     1.303778          1.62
     1.303571          3.21
     1.302947          0.61
     1.302899          0.15
     1.300599          2.41
     1.298798          1.03
     1.298077          0.07
     1.297929          3.78
     1.297796          1.99
     1.297520          1.88
     1.296922          0.02
     1.295855          1.26
     1.295009          2.49
     1.293791          6.16
     1.292510          2.28
     1.291492          0.03
     1.291171          0.59
     1.289018          0.38
     1.282554          1.85
     1.280601          1.34
     1.280424          0.03
     1.280331          0.90
     1.279802          3.86
     1.277206          6.79
     1.274756          9.12
     1.274311          0.60
     1.273887          0.75
     1.272307          0.02
     1.272189          0.42
     1.269292          0.30
     1.268814          1.93
     1.267843          0.04
     1.266189          0.49
     1.265327          3.17
     1.264667          1.64
     1.264403          1.21
     1.262644          3.16
     1.259317          0.51
     1.259141          0.16
     1.259044          8.39
     1.258532          0.34
     1.258194          0.02
     1.257309          0.50
     1.257207          0.14
     1.255725          6.38
     1.254624          0.01
     1.254052          4.95
     1.253720          0.01
     1.253183          0.40
     1.252980          0.13
     1.252727          1.11
     1.251280          0.59
     1.251169          0.54
     1.250629          1.34
     1.249704          0.01
     1.246346          0.91
     1.244518          0.01
     1.243517          0.18
     1.243079          1.79
     1.242586          0.63
     1.242184          1.01
     1.241816          5.91
     1.241531          1.63
     1.241414          0.17
     1.241311          1.09
     1.239335          1.41
     1.237567          1.67
     1.236876          0.01
     1.236741          0.48
     1.236553          0.54
     1.236288          0.44
     1.235497          9.75
     1.235131          0.17
     1.234569          0.91
     1.231968          6.35
     1.231710          0.00
     1.231649          0.13
     1.230679          0.59
     1.230656          1.08
     1.230563          5.37
     1.229650          1.38
     1.228458          0.00
     1.225675          0.76
     1.224733          4.78
     1.224480          0.02
     1.221450          2.62
     1.221337          2.91
     1.220749          1.47
     1.217768          6.74
     1.217305          0.03
     1.217150         11.40
     1.216919          2.40
     1.216415          0.02
     1.216106          0.05
     1.215986          0.41
     1.211601          0.31
     1.211338          0.89
     1.210638          0.29
     1.210184          2.03
     1.209673          4.68
     1.207997          2.29
     1.205811          0.02
     1.205676          5.72
     1.205463          0.29
     1.205137          0.02
     1.203389          1.11
     1.201999          0.40
     1.201074          4.38
     1.200730          0.47
     1.200407          0.00
     1.200031          4.91
     1.198574          1.31
     1.198510          2.59
     1.197863          1.10
     1.195732          0.04
     1.192505          2.09
     1.190704          3.43
     1.190613          4.14
     1.189684          0.11
     1.188757          0.05
     1.188655          4.09
     1.188340          1.01
     1.188266          1.63
     1.188238          6.49
     1.187988          0.01
##############################################################################
###                            Comments                                    ###
##############################################################################
###   Diffraction pattern calculated by Match!. 
###   I/Ic calculated by Match!. 
##############################################################################


