##############################################################################
###               Crystal structure data exported by Match!                ###
##############################################################################
###                           Data published by:                           ###
###                                                                        ###
###               COD (Crystallography Open Database)
##############################################################################
data_9000567
_citation_journal_full    'American Mineralogist'
_citation_journal_volume  '62'
_citation_page_first  '491'
_citation_page_last   '502'
_citation_year  '1977'
_citation_title  'The crystal chemistry of the hydrous copper silicates, shattuckite andplancheiteNote: sample is from Ajo, Arizona'
loop_
_publ_author_name
  'Evans H. T.'
  'Mrose M. E.'
_chemical_formula_sum  'Cu5 H2 O14 Si4'
_chemical_name_mineral  'Shattuckite'
_symmetry_space_group_name_H-M 'P c a b'
_space_group_IT_number 61
_space_group_crystal_system 'orthorhombic'
loop_
_symmetry_equiv_pos_as_xyz
   'x, y, z'
   '-x, -y+0.5, z+0.5'
   'x+0.5, -y, -z+0.5'
   '-x+0.5, y+0.5, -z'
   '-x, -y, -z'
   'x, y+0.5, -z+0.5'
   '-x+0.5, y, z+0.5'
   'x+0.5, -y+0.5, z'
_cell_length_a        9.88500
_cell_length_b       19.83200
_cell_length_c        5.38250
_cell_angle_alpha    90.0000
_cell_angle_beta     90.0000
_cell_angle_gamma    90.0000
loop_
_atom_site_label
_atom_site_fract_x
_atom_site_fract_y
_atom_site_fract_z
_atom_site_occupancy
_atom_site_B_iso_or_equiv
cu      0.500   0.000   0.500    1.00000    0.684
cu      0.331   0.025   0.040    1.00000    0.652
cu      0.252   0.281   0.468    1.00000    0.579
si      0.545   0.135   0.217    1.00000    0.402
si      0.397   0.157   0.727    1.00000    0.397
o      0.505   0.055   0.200    1.00000    0.586
o      0.343   0.081   0.744    1.00000    0.810
o      0.708   0.151   0.220    1.00000    0.502
o      0.491   0.173   0.971    1.00000    0.618
o      0.491   0.167   0.478    1.00000    0.726
o      0.284   0.216   0.719    1.00000    0.534
o      0.678   0.024   0.643    1.00000    1.000
h      0.710   0.435   0.630    1.00000    1.000
_cell_measurement_wavelength    1.541874
_cell_measurement_radiation   'x-rays'
_exptl_crystal_density_diffrn    4.130000
loop_
_pd_peak_d_spacing
_pd_peak_intensity
     9.916000        208.62
     7.000685          4.54
     4.958000        734.67
     4.942500        135.66
     4.598322          0.00
     4.431787       1000.00
     4.423469        559.31
     4.267077         48.57
     3.845194         20.97
     3.640505        285.25
     3.580676          0.01
     3.500343        788.66
     3.421299         78.70
     3.417467        254.85
     3.305333        542.20
     3.188923        129.64
     3.134730          0.49
     3.126888        123.46
     3.038485         36.30
     2.934412        488.53
     2.782444        748.70
     2.747550        288.05
     2.744243        216.86
     2.708822          6.80
     2.703756        174.99
     2.691250        121.30
     2.682051        270.64
     2.666807          0.43
     2.597291         31.49
     2.586251        609.84
     2.574754         33.53
     2.512025         21.50
     2.492608        145.96
     2.479000         26.74
     2.471250        242.61
     2.447159          3.33
     2.444822         14.74
     2.430113         53.45
     2.416951          0.18
     2.404539        253.72
     2.397905        201.01
     2.365262        871.86
     2.363573         46.81
     2.346963         15.72
     2.333562         93.09
     2.300327        358.45
     2.299161         58.59
     2.293032        329.96
     2.245851         32.55
     2.235860        176.48
     2.231588          4.93
     2.227006          7.99
     2.225596         19.41
     2.215894          2.68
     2.211734         82.80
     2.195427          8.47
     2.190374         37.58
     2.172553         74.97
     2.141006          0.54
     2.133538         32.34
     2.126485         76.26
     2.086965         55.10
     2.072939          1.67
     2.049046          0.47
     2.045756          0.87
     2.041952         52.80
     2.039780         11.97
     2.030411          0.41
     1.997221         36.19
     1.995188        148.84
     1.987884          9.40
     1.983200          0.81
     1.980961         15.35
     1.979225          0.39
     1.954315         62.60
     1.951236         38.67
     1.944453         16.92
     1.938841        105.87
     1.922597        122.45
     1.921463         56.44
     1.914298         33.58
     1.885121        102.87
     1.859053          4.65
     1.857618         48.03
     1.847706          0.82
     1.845102         11.99
     1.840558         13.67
     1.836389          0.16
     1.828779         35.22
     1.824108         56.53
     1.823343         11.85
     1.820253        118.80
     1.814921         32.83
     1.812634         26.46
     1.793094        515.53
     1.790338        108.74
     1.786710          4.32
     1.763076         99.60
     1.759959         91.72
     1.758372         11.57
     1.754940         11.35
     1.750171          1.39
     1.741551         27.40
     1.738018          1.29
     1.737997          0.02
     1.734041         45.98
     1.710649          0.08
     1.708734         26.69
     1.705559          1.61
     1.704954         52.54
     1.699168          3.52
     1.696666         51.39
     1.686486        121.78
     1.684548         42.11
     1.680895          1.82
     1.680421         15.68
     1.680146         19.85
     1.678935         24.03
     1.664394         19.91
     1.663052          0.30
     1.662611         18.83
     1.654361          2.32
     1.652667          1.00
     1.647500         23.55
     1.634146         10.76
     1.630042         73.57
     1.625221        329.46
     1.620346          0.20
     1.618176          8.56
     1.615638         77.46
     1.612799          0.02
     1.611753          5.99
     1.596644          0.01
     1.596538         89.06
     1.595369        158.47
     1.594462         16.73
     1.588180          9.93
     1.576113          0.86
     1.575356          5.69
     1.573120          0.73
     1.572890         87.96
     1.570765        213.06
     1.570409          1.72
     1.567365         86.01
     1.563444         20.99
     1.560072          2.55
     1.557154         10.60
     1.556190         37.52
     1.555844          4.89
     1.552391          8.23
     1.552017          0.12
     1.548943          6.11
     1.546724         19.21
     1.545662          0.98
     1.532774         95.43
     1.532444          0.64
     1.531416          4.74
     1.519242         13.65
     1.517470          7.54
     1.516896          3.36
     1.514249         20.64
     1.504861          9.55
     1.502241         26.90
     1.501700         14.40
     1.501389          5.07
     1.498272         10.35
     1.497862          2.78
     1.486564         10.03
     1.485620         54.41
     1.480956          8.01
     1.478472          3.39
     1.477262         17.20
     1.474490         52.77
     1.467206          0.18
     1.464391         66.46
     1.464103          0.80
     1.451875          9.51
     1.451810         39.83
     1.449165         14.86
     1.448000          0.21
     1.437981          3.18
     1.436765         91.53
     1.436558         22.37
     1.435251        189.55
     1.433479          0.83
     1.424582         14.97
     1.422359         12.95
     1.422095          0.00
     1.419457         14.72
     1.418077          0.29
     1.416571         25.20
     1.408321          0.61
     1.406998         36.81
     1.405932         38.28
     1.405120         16.81
     1.403369          0.62
     1.402246          6.50
     1.401606          4.86
     1.400137         77.63
     1.398037          0.06
     1.394400          2.69
     1.394242        101.33
     1.393362         41.07
     1.391222        115.18
     1.388752         23.70
     1.377730          6.94
     1.377062         32.85
     1.376823          1.40
     1.374416          0.19
     1.373775          3.76
     1.372121          2.04
     1.363582          9.10
     1.363405         13.60
     1.362688          0.64
     1.361745          2.07
     1.358129          0.31
     1.356954         25.05
     1.355042          3.25
     1.354411        145.42
     1.353139          1.18
     1.351878          1.58
     1.345625         93.50
     1.342538         48.43
     1.341025         22.52
     1.340729          1.32
     1.340333         10.23
     1.339259         21.07
     1.337660          0.11
     1.333404          0.52
     1.331103          3.91
     1.330325         33.76
     1.329815         11.71
     1.329599          6.15
     1.329289          0.01
     1.327147          3.96
     1.325643          3.04
     1.324467         36.04
     1.321436          0.43
     1.320151         21.39
     1.318601          0.60
     1.318585          7.55
     1.316856          0.04
     1.316847          8.35
     1.315345          0.64
     1.307008          4.32
     1.302567          0.72
     1.301400         22.92
     1.298645          4.85
     1.298593         75.97
     1.298366          0.01
     1.295592          4.20
     1.294995         12.64
     1.293136         14.62
     1.293126        165.32
     1.292092          8.13
     1.291481          1.71
     1.291141          6.13
     1.287581         21.79
     1.287377         26.97
     1.284755          7.75
     1.283335          7.88
     1.281744         28.61
     1.281731         10.68
     1.281538          0.05
     1.280937          3.87
     1.274290          8.61
     1.274025         42.88
     1.273269         12.96
     1.267983          3.22
     1.267267          0.52
     1.264952          1.53
     1.263832         31.25
     1.262373         11.82
     1.261937         21.70
     1.261351          1.05
     1.259815          0.01
     1.258806          4.93
     1.256013          8.83
     1.253526          1.54
     1.252823          0.61
     1.247976          0.05
     1.246304         17.23
     1.243567          0.12
     1.243297          1.12
     1.242717          7.02
     1.242095         76.74
     1.240629         64.46
     1.239500         28.41
     1.236515          0.11
     1.236032          6.01
     1.235625          7.50
     1.234199          8.33
     1.233938          4.50
     1.233711          9.44
     1.233539          0.53
     1.232752          8.35
     1.231629          2.28
     1.231043          0.22
     1.230385          4.56
     1.229869          1.61
     1.228979         37.78
     1.228666         17.07
     1.227027         13.08
     1.226142         19.46
     1.224201          5.70
     1.223580         24.49
     1.222411         17.12
     1.215492          2.87
     1.215056          3.31
     1.213502          3.32
     1.212486         16.17
     1.212373          1.89
     1.211236          1.05
     1.208475         31.95
     1.208194         13.44
     1.206474          3.29
     1.206406          0.64
     1.204516          0.17
     1.204300          2.08
     1.202911          9.80
     1.202270         80.22
     1.202085          1.90
     1.198968          1.50
     1.198953          6.45
     1.198143          0.48
     1.196346          1.75
     1.196334          0.23
     1.195515          0.95
     1.193895          0.37
     1.193559          0.48
     1.192592          0.44
     1.188507         13.85
     1.186666          0.97
     1.186443          0.01
     1.186290          0.09
     1.184800          1.07
     1.184749          5.78
     1.182631          3.67
     1.181786         16.01
     1.180387          0.09
     1.180323         12.82
     1.179694         27.26
     1.178710          0.09
     1.178465         11.74
     1.178207          3.16
     1.174257         29.11
     1.173482          5.89
     1.173355          1.24
     1.171607          2.57
     1.171495          3.39
     1.171033          4.45
     1.170271          2.23
     1.169558         25.40
     1.169210          1.58
     1.166781         12.34
     1.165704          6.80
     1.163343          2.61
     1.160964          6.56
     1.160408          0.57
     1.160131          1.16
     1.157397          0.07
     1.154258          8.10
     1.153875          0.02
     1.152354          8.59
     1.151490          5.79
     1.150322         18.62
     1.150163          4.80
     1.149581         16.40
     1.148427          2.27
     1.147046          3.13
     1.146516          0.84
     1.143983          1.02
     1.140755         13.55
     1.140433          1.64
     1.140375          6.09
     1.140297          9.48
     1.139360          7.73
     1.139156          0.03
     1.137798          0.21
     1.134087          0.95
     1.132608         12.02
     1.132583         10.77
     1.131533          9.60
     1.131352          1.98
     1.130797          5.84
     1.126012          1.96
     1.125832          5.42
     1.124919          0.65
     1.122926         16.41
     1.121130          6.89
     1.118627         12.06
     1.118600          3.90
     1.117930         29.73
     1.116469          0.42
     1.116460         10.27
     1.115794         23.40
     1.115484          0.21
     1.113503          0.04
     1.113106          1.71
     1.112798          1.11
     1.110943          3.75
     1.110656          2.01
     1.108324         11.65
     1.108283         15.96
     1.107947          0.93
     1.107927          1.22
     1.107067          0.53
     1.106505          1.04
     1.105867          1.26
     1.105468         14.03
     1.104839         17.12
     1.103806          6.14
     1.102777          1.53
     1.101895          2.18
     1.101778          1.35
     1.097714         30.27
     1.096979         30.33
     1.096028          0.72
     1.095907          2.06
     1.095187          3.14
     1.094997          1.26
     1.094350          1.96
     1.091657          3.17
     1.090751          0.11
     1.090700          1.81
     1.089923          3.12
     1.088739          3.77
     1.087547          0.86
     1.086276          0.27
     1.085418          0.01
     1.085195          0.00
     1.084700          0.38
     1.084447          1.57
     1.083241          0.12
     1.082870          0.80
     1.080460          1.29
     1.078380          6.44
     1.077441          2.90
     1.076803         12.02
     1.075382          0.70
     1.074576         32.14
     1.074113         17.73
     1.073599          4.21
     1.073018          3.60
     1.072336          4.70
     1.072019         11.87
     1.071076          0.46
     1.070503         26.26
     1.070355          3.93
     1.069875          5.16
     1.069728          6.73
     1.069565          2.93
     1.068628          3.57
     1.068618          0.06
     1.066769          3.21
     1.065360          0.49
     1.064134          2.00
     1.063994          0.05
     1.063242          0.60
     1.062974          1.07
     1.062175         23.53
     1.058657         17.09
     1.058242         23.39
     1.057749         53.36
     1.056773          9.07
     1.056419          1.74
     1.054896          0.07
     1.054541          0.52
     1.054296          8.28
     1.053593          1.36
     1.053452          2.41
     1.053344          4.64
     1.052859          0.10
     1.051961          0.39
     1.051840          0.00
     1.051708          6.68
     1.051668          7.35
     1.050364          4.62
     1.050168          8.17
     1.048728          4.18
     1.046105          1.76
     1.046082          2.75
     1.045972          9.04
     1.044910          7.06
     1.043918          1.11
     1.043482          0.49
     1.042296          4.82
     1.042178          0.70
     1.041463          0.86
     1.040742         11.05
     1.040505          5.28
     1.038773          0.08
     1.038608         15.68
     1.037717         15.41
     1.036469         43.03
     1.035490          8.92
     1.035447          7.10
     1.035253          4.12
     1.035100          0.10
     1.033523          0.02
##############################################################################
###                            Comments                                    ###
##############################################################################
###   Diffraction pattern calculated by Match!. 
###   I/Ic calculated by Match!. 
###   Space group has been derived from given symmetry operations. 
##############################################################################


