##############################################################################
###               Crystal structure data exported by Match!                ###
##############################################################################
###                           Data published by:                           ###
###                                                                        ###
###               COD (Crystallography Open Database)
##############################################################################
data_9016065
_citation_journal_full    'Gazzetta Chimica Italiana'
_citation_journal_volume  '68'
_citation_page_first  '728'
_citation_page_last   '733'
_citation_year  '1938'
_citation_title  'Miscibilita fra gli ossidi salini di ferro e di manganese_cod_database_code 1010370'
loop_
_publ_author_name
  'Montoro V.'
_chemical_formula_sum  'Fe1.5 Mn1.5 O4'
_chemical_name_mineral  'Jacobsite'
_symmetry_space_group_name_H-M 'F d -3 m'
_space_group_IT_number 227
_space_group_crystal_system 'cubic'
loop_
_symmetry_equiv_pos_as_xyz
   'x, y, z'
   'x+0.5, y+0.5, z'
   'x+0.5, y, z+0.5'
   'x, y+0.5, z+0.5'
   '-x+0.25, -y+0.25, -z+0.25'
   '-x+0.75, -y+0.75, -z+0.25'
   '-x+0.75, -y+0.25, -z+0.75'
   '-x+0.25, -y+0.75, -z+0.75'
   '-y+0.25, x+0.25, z+0.25'
   '-y+0.75, x+0.75, z+0.25'
   '-y+0.75, x+0.25, z+0.75'
   '-y+0.25, x+0.75, z+0.75'
   '-x, -y, z'
   '-x+0.5, -y+0.5, z'
   '-x+0.5, -y, z+0.5'
   '-x, -y+0.5, z+0.5'
   'y+0.25, -x+0.25, z+0.25'
   'y+0.75, -x+0.75, z+0.25'
   'y+0.75, -x+0.25, z+0.75'
   'y+0.25, -x+0.75, z+0.75'
   'x+0.25, -z+0.25, y+0.25'
   'x+0.75, -z+0.75, y+0.25'
   'x+0.75, -z+0.25, y+0.75'
   'x+0.25, -z+0.75, y+0.75'
   'x, -y, -z'
   'x+0.5, -y+0.5, -z'
   'x+0.5, -y, -z+0.5'
   'x, -y+0.5, -z+0.5'
   'x+0.25, z+0.25, -y+0.25'
   'x+0.75, z+0.75, -y+0.25'
   'x+0.75, z+0.25, -y+0.75'
   'x+0.25, z+0.75, -y+0.75'
   'z+0.25, y+0.25, -x+0.25'
   'z+0.75, y+0.75, -x+0.25'
   'z+0.75, y+0.25, -x+0.75'
   'z+0.25, y+0.75, -x+0.75'
   '-x, y, -z'
   '-x+0.5, y+0.5, -z'
   '-x+0.5, y, -z+0.5'
   '-x, y+0.5, -z+0.5'
   '-z+0.25, y+0.25, x+0.25'
   '-z+0.75, y+0.75, x+0.25'
   '-z+0.75, y+0.25, x+0.75'
   '-z+0.25, y+0.75, x+0.75'
   'y, -x, -z'
   'y+0.5, -x+0.5, -z'
   'y+0.5, -x, -z+0.5'
   'y, -x+0.5, -z+0.5'
   '-y, x, -z'
   '-y+0.5, x+0.5, -z'
   '-y+0.5, x, -z+0.5'
   '-y, x+0.5, -z+0.5'
   '-x, z, -y'
   '-x+0.5, z+0.5, -y'
   '-x+0.5, z, -y+0.5'
   '-x, z+0.5, -y+0.5'
   '-x, -z, y'
   '-x+0.5, -z+0.5, y'
   '-x+0.5, -z, y+0.5'
   '-x, -z+0.5, y+0.5'
   '-z, -y, x'
   '-z+0.5, -y+0.5, x'
   '-z+0.5, -y, x+0.5'
   '-z, -y+0.5, x+0.5'
   'z, -y, -x'
   'z+0.5, -y+0.5, -x'
   'z+0.5, -y, -x+0.5'
   'z, -y+0.5, -x+0.5'
   'z, x, y'
   'z+0.5, x+0.5, y'
   'z+0.5, x, y+0.5'
   'z, x+0.5, y+0.5'
   'y, z, x'
   'y+0.5, z+0.5, x'
   'y+0.5, z, x+0.5'
   'y, z+0.5, x+0.5'
   '-y, -z, x'
   '-y+0.5, -z+0.5, x'
   '-y+0.5, -z, x+0.5'
   '-y, -z+0.5, x+0.5'
   'z, -x, -y'
   'z+0.5, -x+0.5, -y'
   'z+0.5, -x, -y+0.5'
   'z, -x+0.5, -y+0.5'
   '-y, z, -x'
   '-y+0.5, z+0.5, -x'
   '-y+0.5, z, -x+0.5'
   '-y, z+0.5, -x+0.5'
   '-z, -x, y'
   '-z+0.5, -x+0.5, y'
   '-z+0.5, -x, y+0.5'
   '-z, -x+0.5, y+0.5'
   '-z, x, -y'
   '-z+0.5, x+0.5, -y'
   '-z+0.5, x, -y+0.5'
   '-z, x+0.5, -y+0.5'
   'y, -z, -x'
   'y+0.5, -z+0.5, -x'
   'y+0.5, -z, -x+0.5'
   'y, -z+0.5, -x+0.5'
   '-z+0.25, -x+0.25, -y+0.25'
   '-z+0.75, -x+0.75, -y+0.25'
   '-z+0.75, -x+0.25, -y+0.75'
   '-z+0.25, -x+0.75, -y+0.75'
   '-y+0.25, -z+0.25, -x+0.25'
   '-y+0.75, -z+0.75, -x+0.25'
   '-y+0.75, -z+0.25, -x+0.75'
   '-y+0.25, -z+0.75, -x+0.75'
   'y+0.25, z+0.25, -x+0.25'
   'y+0.75, z+0.75, -x+0.25'
   'y+0.75, z+0.25, -x+0.75'
   'y+0.25, z+0.75, -x+0.75'
   '-z+0.25, x+0.25, y+0.25'
   '-z+0.75, x+0.75, y+0.25'
   '-z+0.75, x+0.25, y+0.75'
   '-z+0.25, x+0.75, y+0.75'
   'y+0.25, -z+0.25, x+0.25'
   'y+0.75, -z+0.75, x+0.25'
   'y+0.75, -z+0.25, x+0.75'
   'y+0.25, -z+0.75, x+0.75'
   'z+0.25, x+0.25, -y+0.25'
   'z+0.75, x+0.75, -y+0.25'
   'z+0.75, x+0.25, -y+0.75'
   'z+0.25, x+0.75, -y+0.75'
   'z+0.25, -x+0.25, y+0.25'
   'z+0.75, -x+0.75, y+0.25'
   'z+0.75, -x+0.25, y+0.75'
   'z+0.25, -x+0.75, y+0.75'
   '-y+0.25, z+0.25, x+0.25'
   '-y+0.75, z+0.75, x+0.25'
   '-y+0.75, z+0.25, x+0.75'
   '-y+0.25, z+0.75, x+0.75'
   'y+0.25, x+0.25, -z+0.25'
   'y+0.75, x+0.75, -z+0.25'
   'y+0.75, x+0.25, -z+0.75'
   'y+0.25, x+0.75, -z+0.75'
   '-y+0.25, -x+0.25, -z+0.25'
   '-y+0.75, -x+0.75, -z+0.25'
   '-y+0.75, -x+0.25, -z+0.75'
   '-y+0.25, -x+0.75, -z+0.75'
   '-x+0.25, z+0.25, y+0.25'
   '-x+0.75, z+0.75, y+0.25'
   '-x+0.75, z+0.25, y+0.75'
   '-x+0.25, z+0.75, y+0.75'
   '-x+0.25, -z+0.25, -y+0.25'
   '-x+0.75, -z+0.75, -y+0.25'
   '-x+0.75, -z+0.25, -y+0.75'
   '-x+0.25, -z+0.75, -y+0.75'
   'z+0.25, -y+0.25, x+0.25'
   'z+0.75, -y+0.75, x+0.25'
   'z+0.75, -y+0.25, x+0.75'
   'z+0.25, -y+0.75, x+0.75'
   '-z+0.25, -y+0.25, -x+0.25'
   '-z+0.75, -y+0.75, -x+0.25'
   '-z+0.75, -y+0.25, -x+0.75'
   '-z+0.25, -y+0.75, -x+0.75'
   'x+0.25, y+0.25, -z+0.25'
   'x+0.75, y+0.75, -z+0.25'
   'x+0.75, y+0.25, -z+0.75'
   'x+0.25, y+0.75, -z+0.75'
   '-x+0.25, y+0.25, z+0.25'
   '-x+0.75, y+0.75, z+0.25'
   '-x+0.75, y+0.25, z+0.75'
   '-x+0.25, y+0.75, z+0.75'
   'x+0.25, -y+0.25, z+0.25'
   'x+0.75, -y+0.75, z+0.25'
   'x+0.75, -y+0.25, z+0.75'
   'x+0.25, -y+0.75, z+0.75'
   '-y, -x, z'
   '-y+0.5, -x+0.5, z'
   '-y+0.5, -x, z+0.5'
   '-y, -x+0.5, z+0.5'
   'y, x, z'
   'y+0.5, x+0.5, z'
   'y+0.5, x, z+0.5'
   'y, x+0.5, z+0.5'
   'x, -z, -y'
   'x+0.5, -z+0.5, -y'
   'x+0.5, -z, -y+0.5'
   'x, -z+0.5, -y+0.5'
   'x, z, y'
   'x+0.5, z+0.5, y'
   'x+0.5, z, y+0.5'
   'x, z+0.5, y+0.5'
   '-z, y, -x'
   '-z+0.5, y+0.5, -x'
   '-z+0.5, y, -x+0.5'
   '-z, y+0.5, -x+0.5'
   'z, y, x'
   'z+0.5, y+0.5, x'
   'z+0.5, y, x+0.5'
   'z, y+0.5, x+0.5'
_cell_length_a        8.50100
_cell_length_b        8.50100
_cell_length_c        8.50100
_cell_angle_alpha    90.0000
_cell_angle_beta     90.0000
_cell_angle_gamma    90.0000
loop_
_atom_site_label
_atom_site_fract_x
_atom_site_fract_y
_atom_site_fract_z
_atom_site_occupancy
_atom_site_B_iso_or_equiv
fe      0.625   0.625   0.625    0.25000    1.000
fe      0.625   0.625   0.625    0.25000    1.000
fe      0.000   0.000   0.000    0.50000    1.000
mn      0.625   0.625   0.625    0.25000    1.000
mn      0.625   0.625   0.625    0.25000    1.000
mn      0.000   0.000   0.000    0.50000    1.000
o      0.375   0.375   0.375    1.00000    1.000
_cell_measurement_wavelength    1.541874
_cell_measurement_radiation   'x-rays'
_exptl_crystal_density_diffrn    4.977000
loop_
_pd_peak_d_spacing
_pd_peak_intensity
     4.908055         57.43
     3.005558        275.50
     2.563148       1000.00
     2.454027         72.82
     2.125250        205.77
     1.950263         11.86
     1.735259         89.36
     1.636018        275.31
     1.502779        392.95
     1.436931          7.11
     1.344126         31.11
     1.296390         77.62
     1.281574         30.47
     1.227014         25.07
     1.190378          3.19
     1.135994         30.86
     1.106736        122.31
     1.062625         45.00
     1.038562          0.97
     1.001853         15.39
     0.981611         66.59
     0.975132         13.17
     0.950441         30.92
     0.933106          2.33
     0.906210          8.87
     0.891147         51.73
     0.867630        132.42
     0.854383          2.40
     0.833592         30.09
     0.821823         93.67
     0.818009         20.47
     0.792722          2.57
##############################################################################
###                            Comments                                    ###
##############################################################################
###   Diffraction pattern calculated by Match!. 
###   I/Ic calculated by Match!. 
###   Space group has been derived from given symmetry operations. 
##############################################################################


