##############################################################################
###               Crystal structure data exported by Match!                ###
##############################################################################
###                           Data published by:                           ###
###                                                                        ###
###               COD (Crystallography Open Database)
##############################################################################
data_1536087
_citation_journal_full    'Acta Chemica Scandinavica, Series A: (28,1974-)'
_citation_journal_volume  '37'
_citation_page_first  '715'
_citation_page_last   '721'
_citation_year  '1983'
_citation_title  'Structure refinements of Co3 (P O4)2. A note on the reliability of powder diffraction studies'
loop_
_publ_author_name
  'Nord A.G.'
  'Stefanidis T.'
_chemical_formula_sum  'Co3 O8 P2'
_chemical_name_common  'Co3 (P O4)2'
_symmetry_space_group_name_H-M 'P 1 21/n 1'
_space_group_IT_number 14
_space_group_crystal_system 'monoclinic'
loop_
_symmetry_equiv_pos_as_xyz
   'x, y, z'
   '-x+0.5, y+0.5, -z+0.5'
   '-x, -y, -z'
   'x+0.5, -y+0.5, z+0.5'
_cell_length_a        7.55600
_cell_length_b        8.37100
_cell_length_c        5.06400
_cell_angle_alpha    90.0000
_cell_angle_beta     94.0500
_cell_angle_gamma    90.0000
_cell_formula_units_Z 2
loop_
_atom_site_label
_atom_site_fract_x
_atom_site_fract_y
_atom_site_fract_z
_atom_site_occupancy
_atom_site_B_iso_or_equiv
o      0.355   0.078   0.053    1.00000    1.000
co      0.000   0.000   0.500    1.00000    1.000
o      0.052   0.144   0.826    1.00000    1.000
co      0.609   0.137   0.076    1.00000    1.000
o      0.128   0.199   0.306    1.00000    1.000
p      0.198   0.190   0.033    1.00000    1.000
o      0.253   0.363   0.950    1.00000    1.000
_cell_measurement_wavelength    1.541874
_cell_measurement_radiation   'x-rays'
_exptl_crystal_density_diffrn    3.812000
loop_
_pd_peak_d_spacing
_pd_peak_intensity
     5.601230         39.06
     4.340294        821.64
     4.324933        156.13
     4.185500         22.65
     4.065444        507.49
     3.853158        261.05
     3.768566          8.41
     3.659155         21.40
     3.656981          0.12
     3.436388       1000.00
     3.222896        180.94
     3.012833        191.77
     2.930379          5.77
     2.916223         82.52
     2.800615        171.67
     2.759800        106.88
     2.616767        100.31
     2.525677        311.01
     2.505757        308.06
     2.442462        484.70
     2.418014         39.35
     2.406336        165.45
     2.396586         84.31
     2.349096          2.62
     2.347133         21.51
     2.315659         21.94
     2.300582         55.84
     2.258440          4.43
     2.242533          0.56
     2.231839        107.58
     2.188710          5.48
     2.170147         10.69
     2.162466         19.51
     2.154101         25.51
     2.117526        169.77
     2.112749         57.68
     2.100703         19.35
     2.092750         55.55
     2.082344        163.66
     2.046067        175.20
     2.032722         20.38
     2.026224          4.68
     2.018413          1.00
     2.016464          5.69
     1.975318          9.14
     1.939532          6.54
     1.933393          9.35
     1.926579         39.43
     1.885065         28.18
     1.884283          9.07
     1.872516         16.75
     1.867077         24.72
     1.860694          9.28
     1.839957        136.61
     1.838287          0.80
     1.829578         11.01
     1.828491         66.18
     1.804217          0.00
     1.795408         32.14
     1.781956         21.10
     1.767022        117.93
     1.739422         48.10
     1.722130          0.00
     1.718194         21.13
     1.713044          0.17
     1.701639         19.66
     1.690428         95.17
     1.690278         55.58
     1.686165        111.01
     1.668545         35.19
     1.659578         33.66
     1.650722          5.74
     1.642986          2.15
     1.636355         66.32
     1.634365         74.65
     1.619126          0.77
     1.611448          2.02
     1.607978          5.08
     1.595640          6.45
     1.592054          3.45
     1.590556          2.22
     1.589663          0.40
     1.589188         15.84
     1.564160          1.62
     1.562118         97.14
     1.562021          2.01
     1.561576         17.42
     1.561513          2.33
     1.552639         12.93
     1.552040          0.88
     1.549926         16.01
     1.548070         22.50
     1.540530        113.63
     1.537549          4.06
     1.530012         65.25
     1.517181          2.96
     1.512584         91.77
     1.510075         21.38
     1.506417          0.00
     1.483564         60.88
     1.477713          4.21
     1.476105         24.28
     1.474963         47.66
     1.473273          4.77
     1.467867          0.03
     1.465189          6.05
     1.465073          6.64
     1.461618          0.86
     1.458112         56.56
     1.452803         43.89
     1.450972          0.03
     1.446765         49.92
     1.441644         21.59
     1.439835         22.87
     1.432044          3.73
     1.425629         14.20
     1.418249          0.02
     1.417310         23.43
     1.410729          0.08
     1.400435         12.28
     1.400308         37.03
     1.397422         12.90
     1.395458          5.30
     1.395167         25.55
     1.393202          4.61
     1.389694         20.96
     1.385072          5.66
     1.381825         25.32
     1.379900          0.27
     1.374507         32.05
     1.371862         40.67
     1.368028          0.83
     1.367381          1.57
     1.364411         27.31
     1.362653         10.17
     1.356744         23.85
     1.355148          0.07
     1.344815          0.06
     1.342433         30.00
     1.337732          0.34
     1.331546          9.73
     1.329773         20.20
     1.329460         10.45
     1.328232         10.31
     1.326264          9.87
     1.325576          6.18
     1.320109         12.35
     1.319899         28.59
     1.319623          3.59
     1.311879          3.29
     1.308384          3.32
     1.304633          6.17
     1.302825          0.97
     1.294745          2.50
     1.292305         10.56
     1.289257          2.91
     1.286590          5.95
     1.284386          6.86
     1.280598         13.91
     1.274192          9.61
     1.273270         26.41
     1.263644          2.15
     1.262839          3.18
     1.260682          8.41
     1.259114          8.63
     1.256189          0.00
     1.252879         11.19
     1.251550          2.16
     1.248709         31.98
     1.246028          9.52
     1.243289          2.17
     1.242279          0.51
     1.242058         19.15
     1.240636          0.45
     1.228343          0.03
     1.226361         12.36
     1.223719         13.80
     1.223149          0.23
     1.221231         11.15
     1.219718          2.62
     1.218994          1.86
     1.218316          1.73
     1.218274          4.93
     1.212062          0.26
     1.210850          0.44
     1.209007          1.38
     1.206573         11.70
     1.205454          7.84
     1.204690         20.82
     1.203168          4.47
     1.202967          9.25
     1.201729          2.34
     1.201113         15.82
     1.200195          0.11
     1.199062         29.22
     1.198293         20.07
     1.195030         13.67
     1.190067          0.02
     1.188690          0.02
     1.187257          0.62
     1.187212          0.01
     1.181834          5.32
     1.181321          0.10
     1.181083          0.22
     1.179921          1.30
     1.176476          2.58
     1.174548          0.23
     1.173566          5.82
     1.173511         23.95
     1.172706         10.70
     1.165655         16.72
     1.164728          0.00
     1.163878          3.82
     1.163692          0.15
     1.161365          0.00
     1.157830          0.03
     1.153615         22.06
     1.152977          1.24
     1.152897          0.76
     1.150696          0.75
     1.150498          1.91
     1.150291          0.63
     1.148867         12.81
     1.148400          0.06
     1.147254          5.28
     1.146911          0.88
     1.145463          1.28
     1.145289          0.93
     1.142951          5.37
     1.139845          0.57
     1.137490         16.45
     1.132948          0.38
     1.129220         20.48
     1.126563          1.44
     1.126465          1.29
     1.122092          9.10
     1.121267          1.86
     1.120684          5.44
     1.120246          2.45
     1.119405          0.41
     1.117024          1.56
     1.116529          4.80
     1.115920          2.13
     1.113399          1.78
     1.112951          0.18
     1.106824          0.02
     1.106013          0.24
     1.105546          4.31
     1.104487          9.18
     1.101901          8.44
     1.101057          7.21
     1.094665          5.47
     1.094355          2.71
     1.088325          7.09
     1.085646          0.02
     1.085122          0.02
     1.085074          6.04
     1.085019          2.83
     1.083890          0.44
     1.081739         10.62
     1.081233          6.83
     1.081108          0.00
     1.080827          0.12
     1.079778         14.23
     1.079491          0.20
     1.077051         15.46
     1.076906          4.46
     1.076629          7.14
     1.076071          2.08
     1.074848          1.44
     1.074455          2.41
     1.074299          7.29
     1.072485         30.74
     1.070308          5.69
     1.069419          1.27
     1.068575          3.70
     1.067935          0.06
     1.066627          0.83
     1.065368          3.57
     1.062537          0.32
     1.061738          2.94
     1.061294          3.22
     1.059974          6.97
     1.058763          2.90
     1.056917          0.29
     1.056375          0.35
     1.053330          0.42
     1.050870          3.09
     1.050351          3.55
     1.049891          1.97
     1.049431          0.78
     1.047365          0.72
     1.046375          2.55
     1.045637          2.74
     1.044558          6.91
     1.042781         19.82
     1.041172          1.60
     1.040599          0.39
     1.038230         11.03
     1.036435          3.80
     1.035365          0.56
     1.034776          2.97
     1.030720          0.19
     1.030336          9.12
     1.027813          6.64
     1.024623          0.00
     1.023921          1.51
     1.023033         18.63
     1.021452          0.15
     1.021081          0.02
     1.018802          2.77
     1.017724          3.95
     1.017231         22.00
     1.016361          1.75
     1.015718          0.87
     1.013348          2.05
     1.013112         22.35
     1.013019          0.11
     1.011843          2.20
     1.011764          1.00
     1.011301          4.15
     1.010760          0.09
     1.009682          2.79
     1.009308          3.53
     1.009207          4.26
     1.008952         15.28
     1.008232          9.02
     1.008189          6.27
     1.007691          0.43
     1.006777          9.66
##############################################################################
###                            Comments                                    ###
##############################################################################
###   Diffraction pattern calculated by Match!. 
###   I/Ic calculated by Match!. 
##############################################################################


