##############################################################################
###               Crystal structure data exported by Match!                ###
##############################################################################
###                           Data published by:                           ###
###                                                                        ###
###               COD (Crystallography Open Database)
##############################################################################
data_9000574
_citation_journal_full    'American Mineralogist'
_citation_journal_volume  '62'
_citation_page_first  '772'
_citation_page_last   '783'
_citation_year  '1977'
_citation_title  'Structural refinements of dolomite and a magnesian calcite and implicationsfor dolomite formation in the marine environment Mg-calcite'
loop_
_publ_author_name
  'Althoff P. L.'
_chemical_formula_sum  'C Ca0.9 Mg0.1 O3'
_chemical_name_mineral  'Calcite'
_symmetry_space_group_name_H-M 'R -3 c'
_space_group_IT_number 167
_space_group_crystal_system 'trigonal (hexagonal axes)'
loop_
_symmetry_equiv_pos_as_xyz
   'x, y, z'
   'x+0.66667, y+0.33333, z+0.33333'
   'x+0.33333, y+0.66667, z+0.66667'
   '-y, x-y, z'
   '-y+0.66667, x-y+0.33333, z+0.33333'
   '-y+0.33333, x-y+0.66667, z+0.66667'
   '-x+y, -x, z'
   '-x+y+0.66667, -x+0.33333, z+0.33333'
   '-x+y+0.33333, -x+0.66667, z+0.66667'
   'x-y, -y, -z+0.5'
   'x-y+0.66667, -y+0.33333, -z+0.83333'
   'x-y+0.33333, -y+0.66667, -z+0.16667'
   '-x, -x+y, -z+0.5'
   '-x+0.66667, -x+y+0.33333, -z+0.83333'
   '-x+0.33333, -x+y+0.66667, -z+0.16667'
   'y, x, -z+0.5'
   'y+0.66667, x+0.33333, -z+0.83333'
   'y+0.33333, x+0.66667, -z+0.16667'
   '-x, -y, -z'
   '-x+0.66667, -y+0.33333, -z+0.33333'
   '-x+0.33333, -y+0.66667, -z+0.66667'
   'y, -x+y, -z'
   'y+0.66667, -x+y+0.33333, -z+0.33333'
   'y+0.33333, -x+y+0.66667, -z+0.66667'
   'x-y, x, -z'
   'x-y+0.66667, x+0.33333, -z+0.33333'
   'x-y+0.33333, x+0.66667, -z+0.66667'
   '-x+y, y, z+0.5'
   '-x+y+0.66667, y+0.33333, z+0.83333'
   '-x+y+0.33333, y+0.66667, z+0.16667'
   'x, x-y, z+0.5'
   'x+0.66667, x-y+0.33333, z+0.83333'
   'x+0.33333, x-y+0.66667, z+0.16667'
   '-y, -x, z+0.5'
   '-y+0.66667, -x+0.33333, z+0.83333'
   '-y+0.33333, -x+0.66667, z+0.16667'
_cell_length_a        4.94100
_cell_length_b        4.94100
_cell_length_c       16.86400
_cell_angle_alpha    90.0000
_cell_angle_beta     90.0000
_cell_angle_gamma   120.0000
loop_
_atom_site_label
_atom_site_fract_x
_atom_site_fract_y
_atom_site_fract_z
_atom_site_occupancy
_atom_site_B_iso_or_equiv
ca      0.000   0.000   0.000    0.90000    1.796
mg      0.000   0.000   0.000    0.10000    0.173
c      0.000   0.000   0.250    1.00000    1.362
o      0.258   0.000   0.250    1.00000    2.917
_cell_measurement_wavelength    1.541874
_cell_measurement_radiation   'x-rays'
_exptl_crystal_density_diffrn    2.753000
loop_
_pd_peak_d_spacing
_pd_peak_intensity
     3.815804         76.70
     3.003199       1000.00
     2.810667         23.33
     2.470500        139.19
     2.261714        184.45
     2.073799        134.28
     1.907902         62.66
     1.890991        182.06
     1.855583        184.26
     1.609935         27.84
     1.588368         81.83
     1.568951          8.55
     1.510026         53.01
     1.501600         24.29
     1.492937         22.51
     1.458326         15.72
     1.426344         58.25
     1.405333         30.76
     1.342798          9.53
     1.324436         17.84
     1.283168         26.54
     1.271935          4.86
     1.235250         10.62
     1.221528         19.34
     1.206465          0.24
     1.183862          0.05
     1.175206          4.78
     1.167276         18.14
     1.159505          2.72
     1.142391         36.55
     1.130857         16.56
     1.119507          0.03
     1.112645          3.01
     1.064622          0.03
     1.061251          0.06
     1.049646          5.94
     1.036899         20.44
     1.034159         24.52
     1.031316          0.10
     1.023411         11.18
     1.023290          2.36
     1.011937          1.79
##############################################################################
###                            Comments                                    ###
##############################################################################
###   Diffraction pattern calculated by Match!. 
###   I/Ic calculated by Match!. 
##############################################################################


