##############################################################################
###               Crystal structure data exported by Match!                ###
##############################################################################

data_9011489
_citation_journal_full    'Zeitschrift fur Kristallographie'
_citation_journal_volume  '189'
_citation_page_first  '13'
_citation_page_last   '15'
_citation_year  '1989'
_citation_title  'A redetermination of the crystal structure of cupric chloride dihydrateLocality: synthetic'
loop_
_publ_author_name
  'Brownstein S.'
  'Han N. F.'
  'Gabe E.'
  'LePage Y.'
_chemical_formula_sum  'Cl2 Cu H4 O2'
_chemical_name_mineral  'Eriochalcite'
_chemical_name_common  'Copper dichloride dihydrate'
_symmetry_space_group_name_H-M 'P b m n'
_space_group_IT_number 53
_space_group_crystal_system 'orthorhombic'
loop_
_symmetry_equiv_pos_as_xyz
   'x, y, z'
   '-x+0.5, -y+0.5, z'
   'x+0.5, -y+0.5, -z'
   '-x, y, -z'
   '-x, -y, -z'
   'x+0.5, y+0.5, -z'
   '-x+0.5, y+0.5, z'
   'x, -y, z'
_cell_length_a        7.41410
_cell_length_b        8.08860
_cell_length_c        3.74580
_cell_angle_alpha    90.0000
_cell_angle_beta     90.0000
_cell_angle_gamma    90.0000
loop_
_atom_site_label
_atom_site_fract_x
_atom_site_fract_y
_atom_site_fract_z
_atom_site_occupancy
_atom_site_B_iso_or_equiv
cu      0.000   0.000   0.000    1.00000    1.669
cl      0.240   0.000   0.380    1.00000    1.789
o      0.000   0.240   0.000    1.00000    2.520
h      0.099   0.275   0.064    1.00000    5.399
_cell_measurement_wavelength    1.541874
_cell_measurement_radiation   'x-rays'
_exptl_crystal_density_diffrn    2.520000
loop_
_pd_peak_d_spacing
_pd_peak_intensity
     5.465486       1000.00
     4.044300        444.22
     3.745800        112.58
     3.707050         35.64
     3.343327        140.92
     3.089787        373.41
     2.748156         13.08
     2.732743         38.03
     2.634874        620.72
     2.576831        107.01
     2.533853        112.11
     2.505301          1.45
     2.363508         62.54
     2.207676        221.94
     2.098767         95.10
     2.062844         22.20
     2.022150        152.92
     1.998864        133.21
     1.884445          0.68
     1.872900         43.84
     1.853525         97.65
     1.837608         32.06
     1.821829         19.00
     1.815858         29.93
     1.779416         16.72
     1.775212          6.27
     1.771760         65.32
     1.730280         24.94
     1.699508         10.89
     1.684992         63.53
     1.671663         43.94
     1.661266         10.90
     1.656544         44.45
     1.638330         50.46
     1.637068          0.70
     1.627299          1.19
     1.604179        175.76
     1.580534         25.59
     1.544893         11.58
     1.536675          0.00
     1.506127         28.32
     1.492684         13.94
     1.467898         28.80
     1.458514         23.88
     1.456209         29.54
     1.444049         10.40
     1.420747          0.29
     1.414347          0.60
     1.400349         19.03
     1.378722          4.12
     1.378618          0.12
     1.374078         20.50
     1.366372         50.65
     1.359120         12.95
     1.353524          8.35
     1.351070         17.22
     1.348100         12.67
     1.317437         16.06
     1.305910         14.11
     1.304976          6.47
     1.300302          0.91
     1.299289         12.07
     1.288416         24.56
     1.283637          5.76
     1.272968         22.25
     1.268452          0.00
     1.266927          0.50
     1.252650          7.69
     1.250286          5.88
     1.248600         12.66
     1.235683          0.48
     1.231262          3.61
     1.227540          6.26
     1.217240         13.25
     1.207901         13.56
     1.200934         10.56
     1.200139         22.27
     1.193037          9.35
     1.183687          0.65
     1.183283          2.43
     1.181754          0.21
     1.177885          5.66
     1.173480         19.19
     1.170821          0.08
     1.162566          4.23
     1.162504          0.17
     1.161323          0.60
     1.158990          0.28
     1.150741          9.91
     1.141731          4.01
     1.139142          3.69
     1.135673          0.04
     1.128490          3.84
     1.126998         16.26
     1.120003          7.96
     1.117319          7.28
     1.114442          2.18
     1.104013          6.18
     1.103838         13.67
     1.097031          8.71
     1.094137          2.26
     1.093097          7.33
     1.092126          5.21
     1.090234         10.67
     1.083528          0.08
     1.082414          7.21
     1.075986          0.45
     1.074398          4.14
     1.067554          6.19
     1.062394         12.25
     1.058226          0.06
     1.054404          0.33
     1.051652          3.91
     1.050192          1.07
     1.049383          2.83
     1.049330          4.69
     1.046797          0.00
     1.046749          1.46
     1.035555         10.91
     1.031422          4.35
     1.029929          3.98
     1.027171          0.23
     1.023137          0.81
     1.021541          0.36
     1.021282          2.17
     1.019197          1.16
     1.014959         21.35
     1.011201          9.84
     1.011075          7.14
     1.008126          5.68
     1.007873          5.22
##############################################################################
###                            Comments                                    ###
##############################################################################
###   Diffraction pattern calculated by Match!. 
###   I/Ic calculated by Match!. 
###   Space group has been derived from given symmetry operations. 
##############################################################################


