##############################################################################
###               Crystal structure data exported by Match!                ###
##############################################################################
###                           Data published by:                           ###
###                                                                        ###
###               COD (Crystallography Open Database)
##############################################################################
data_9011493
_citation_journal_full    'Zeitschrift fur Kristallographie'
_citation_journal_volume  '198'
_citation_page_first  '177'
_citation_page_last   '212'
_citation_year  '1992'
_citation_title  'Crystal structures of the low-temperature quartz-type phases of SiO2 and GeO2at elevated pressure P = room pressure'
loop_
_publ_author_name
  'Glinnemann J.'
  'King H. E.'
  'Schulz H.'
  'Hahn T.'
  'La Placa S. J.'
  'Dacol F.'
_chemical_formula_sum  'O2 Si'
_chemical_name_mineral  'Quartz'
_symmetry_space_group_name_H-M 'P 31 2 1 S'
_space_group_IT_number 152
_space_group_crystal_system 'trigonal (hexagonal axes)'
loop_
_symmetry_equiv_pos_as_xyz
   'x, y, z'
   '-y, x-y, z+0.33333'
   '-x+y, -x, z+0.66667'
   'y, x, -z+0.33333'
   '-x, -x+y, -z+0.66667'
   'x-y, -y, -z'
_cell_length_a        4.92100
_cell_length_b        4.92100
_cell_length_c        5.41630
_cell_angle_alpha    90.0000
_cell_angle_beta     90.0000
_cell_angle_gamma   120.0000
loop_
_atom_site_label
_atom_site_fract_x
_atom_site_fract_y
_atom_site_fract_z
_atom_site_occupancy
_atom_site_B_iso_or_equiv
si      0.470   0.000   0.000    1.00000    0.357
o      0.415   0.268   -0.119    1.00000    0.902
_cell_measurement_wavelength    1.541874
_cell_measurement_radiation   'x-rays'
_exptl_crystal_density_diffrn    2.635000
loop_
_pd_peak_d_spacing
_pd_peak_intensity
     4.261711        202.71
     3.349244       1000.00
     2.460500         69.65
     2.285696         71.63
     2.240183         32.79
     2.130856         54.00
     1.982920         32.24
     1.821109        128.46
     1.805433          3.23
     1.674622         39.38
     1.662409         16.70
     1.610775          2.39
     1.543946         92.75
     1.455609         17.99
     1.420570          4.63
     1.384402         59.09
     1.377477         70.19
     1.374095         43.67
     1.290501         23.18
     1.258001         29.13
     1.230250         15.64
     1.201941         30.82
     1.199692          8.49
     1.186299         26.09
     1.181986         28.98
     1.154808         19.53
     1.142848          2.97
     1.120092          0.26
     1.116415          2.83
     1.083300         30.90
     1.065428          6.02
     1.049875         16.51
     1.045395         11.45
     1.036497         17.96
     1.016657         15.78
##############################################################################
###                            Comments                                    ###
##############################################################################
###   Diffraction pattern calculated by Match!. 
###   I/Ic calculated by Match!. 
###   Space group has been derived from given symmetry operations. 
##############################################################################


