##############################################################################
###               Crystal structure data exported by Match!                ###
##############################################################################
###                           Data published by:                           ###
###                                                                        ###
###               COD (Crystallography Open Database)
##############################################################################
data_1528554
_citation_journal_full    'Chemicke Zvesti'
_citation_journal_volume  '19'
_citation_page_first  '641'
_citation_page_last   '644'
_citation_year  '1965'
_citation_title  'Krystalova struktura Cu H P O3 (H2 O)2'
loop_
_publ_author_name
  'Handlovic M.'
_chemical_formula_sum  'Cu H5 O5 P'
_chemical_name_common  'Cu (H P O3) (H2 O)2'
_symmetry_space_group_name_H-M 'P 21 21 21'
_space_group_IT_number 19
_space_group_crystal_system 'orthorhombic'
loop_
_symmetry_equiv_pos_as_xyz
   'x, y, z'
   '-x+0.5, -y, z+0.5'
   'x+0.5, -y+0.5, -z'
   '-x, y+0.5, -z+0.5'
_cell_length_a        6.71000
_cell_length_b        9.00000
_cell_length_c        7.40000
_cell_angle_alpha    90.0000
_cell_angle_beta     90.0000
_cell_angle_gamma    90.0000
_cell_formula_units_Z 4
loop_
_atom_site_label
_atom_site_fract_x
_atom_site_fract_y
_atom_site_fract_z
_atom_site_occupancy
_atom_site_B_iso_or_equiv
o      0.235   0.215   0.712    1.00000    1.000
p      0.758   0.398   0.437    1.00000    1.000
o      0.053   0.279   0.031    1.00000    1.000
o      0.292   0.444   0.298    1.00000    1.000
o      0.267   0.054   0.132    1.00000    1.000
cu      0.514   0.157   0.223    1.00000    1.000
o      0.955   0.390   0.530    1.00000    1.000
_cell_measurement_wavelength    1.541874
_cell_measurement_radiation   'x-rays'
_exptl_crystal_density_diffrn    2.592000
loop_
_pd_peak_d_spacing
_pd_peak_intensity
     5.715949          5.47
     5.379454        208.50
     4.970769       1000.00
     4.500000         27.14
     4.351220         83.73
     3.844896        172.41
     3.737357        645.37
     3.700000         74.54
     3.422096        193.77
     3.355000          7.94
     3.336030        147.78
     3.240060         81.42
     3.143675          7.78
     3.055622         29.69
     3.048525        109.57
     2.893408        101.66
     2.857974         20.29
     2.780218         79.90
     2.738735          6.97
     2.689727        104.96
     2.629403         88.13
     2.568472         43.62
     2.527918        411.90
     2.485384         30.76
     2.395713         59.42
     2.378936          9.64
     2.330267          5.60
     2.315188         94.27
     2.250000         37.17
     2.242189         40.63
     2.236334         16.86
     2.201301          1.10
     2.175610          2.37
     2.170640         21.27
     2.163022         64.71
     2.152692         34.72
     2.141006         42.77
     2.140715          1.52
     2.133262         51.56
     2.082881          0.58
     2.058700         49.57
     2.049789         75.39
     2.002904         81.00
     1.987342          0.97
     1.940594         23.52
     1.933339         22.81
     1.922448          2.47
     1.914112         20.29
     1.913903          9.97
     1.905316         24.99
     1.872237          4.79
     1.868679         17.53
     1.850000         29.08
     1.848094         45.12
     1.832858         43.88
     1.817949         31.88
     1.812112          7.54
     1.811803         47.49
     1.793151         11.82
     1.783457          9.99
     1.761389         57.55
     1.749439         45.77
     1.749002          0.47
     1.742717         10.75
     1.738533          5.23
     1.711048         14.89
     1.692452         19.93
     1.677500         68.62
     1.668015         69.65
     1.662322         14.44
     1.657992         57.59
     1.656923         15.30
     1.656788          1.51
     1.649099          6.13
     1.635991          4.49
     1.629538         12.39
     1.620030         32.27
     1.618623          1.09
     1.613638          4.68
     1.613544         26.92
     1.609614          1.00
     1.594406         20.79
     1.586255         14.49
     1.586137          0.94
     1.574666          9.69
     1.573490         24.64
     1.571838          1.37
     1.554871         11.20
     1.551021         32.21
     1.550910          0.56
     1.537535         23.05
     1.533019          1.07
     1.527811         12.56
     1.524263          1.59
     1.506262         19.04
     1.500000          0.31
     1.489511         29.63
     1.470102          5.56
     1.464149          0.21
     1.463869          3.34
     1.460386          4.74
     1.457921         16.01
     1.457829          9.38
     1.454024          9.35
     1.450407         20.18
     1.446704         12.37
     1.445262          7.59
     1.436305          9.78
     1.436040         34.53
     1.428987          4.97
     1.426980          9.61
     1.425553          0.74
     1.425467         27.74
     1.421043          1.05
     1.408000         20.22
     1.405915          0.52
     1.402296          0.04
     1.397645         18.84
     1.390109         22.03
     1.387126          0.23
     1.377776          1.10
     1.376034          0.48
     1.370938          5.87
     1.369367         26.45
     1.361430          9.32
     1.361205          7.31
     1.358992         31.09
     1.354100          1.50
     1.346507          3.29
     1.344864         11.37
     1.339029         17.22
     1.334191          9.56
     1.334120          7.94
     1.327325          1.80
     1.327273          0.00
     1.325578         24.27
     1.323189          8.95
     1.320462         18.20
     1.314702         10.90
     1.311278          4.29
     1.306475          6.34
     1.302045         18.64
     1.296667         35.17
     1.290107          5.29
     1.287578          4.91
     1.286030          8.83
     1.284236         18.29
     1.281632          6.32
     1.267039         10.24
     1.266903          8.41
     1.266737          5.16
     1.263959          1.81
     1.262742          0.88
     1.261581          1.56
     1.259053         10.45
     1.258875         13.32
     1.249366          7.84
     1.245786          0.43
     1.244750          2.06
     1.242692          6.11
     1.236484          4.32
     1.234257          5.34
     1.234201          0.19
     1.233333          2.01
     1.231013          1.41
     1.228499         20.33
     1.227195          0.00
     1.225018          0.52
     1.222812          4.12
     1.221913          3.48
     1.219069          1.76
     1.216010         10.78
     1.214746          6.13
     1.214479          0.01
     1.213013          0.07
     1.210660          0.66
     1.208570          0.04
     1.204201          8.64
     1.204149          3.49
     1.202144          4.09
     1.200575          0.14
     1.197856          4.48
     1.197249          3.39
     1.195062          1.33
     1.190296          3.08
     1.189468          0.19
     1.185079          1.49
     1.180769          3.40
     1.180659          1.59
     1.178829          7.86
     1.171208          4.59
     1.168845          5.95
     1.165134          3.01
     1.164798          2.56
     1.162936          2.76
     1.160198          0.11
     1.157594          0.11
     1.152560          2.54
     1.148136          0.09
     1.148091          3.78
     1.147956          3.11
     1.143190          7.05
     1.141962          6.14
     1.141429          9.82
     1.140699          5.75
     1.140351          1.89
     1.140130          0.00
     1.138829          3.44
     1.126951          1.51
     1.125000          0.01
     1.124564          0.32
     1.124020          5.85
     1.121094          0.65
     1.118333          0.00
     1.118167          0.63
     1.117532          4.25
     1.114673          0.38
     1.112220         11.41
     1.112010         10.08
     1.109808          0.80
     1.109798          0.92
     1.109514          3.17
     1.105777          1.58
     1.105616          1.58
     1.102239          3.48
     1.101466          3.17
     1.100650          4.27
     1.100407          7.07
     1.098728          2.95
     1.097524          2.75
     1.097249          4.18
     1.097165          3.63
     1.087805          3.18
     1.086288          2.28
     1.085320          0.85
     1.082134          4.95
     1.082096          1.25
     1.081511          2.35
     1.080020          1.02
     1.079983          2.57
     1.079500          1.37
     1.078461          1.69
     1.077523          1.60
     1.076346          1.34
     1.075891          3.02
     1.073832         10.35
     1.072327          5.78
     1.070503          6.59
     1.070357         12.59
     1.067731          1.42
     1.067292          2.24
     1.066631          0.27
     1.064697          3.17
     1.063010          2.76
     1.062760         16.19
     1.055957          3.26
     1.055782          0.28
     1.055721          4.52
     1.053518          0.84
     1.050197          1.74
     1.049925          0.28
     1.047892          2.13
     1.044262          0.69
     1.044195          5.54
     1.042950          0.53
     1.041440          0.32
     1.040869          0.62
     1.040768          4.44
     1.037541          3.08
     1.037303          2.98
     1.033335          3.10
     1.033101          5.14
     1.029350          0.13
     1.029127          1.36
     1.024894          0.25
     1.023569          1.13
     1.022651          4.79
     1.021391          0.40
     1.020459          0.62
     1.018541          0.04
     1.018415          6.53
     1.017935          1.81
     1.017417          0.00
     1.017232          4.15
     1.016175          1.08
     1.015773          5.19
     1.012080          2.42
     1.011864          0.14
     1.010893          4.84
     1.008274          0.26
     1.008236          1.02
     1.007093          3.32
##############################################################################
###                            Comments                                    ###
##############################################################################
###   Diffraction pattern calculated by Match!. 
###   I/Ic calculated by Match!. 
##############################################################################


