##############################################################################
###               Crystal structure data exported by Match!                ###
##############################################################################
###                           Data published by:                           ###
###                                                                        ###
###               COD (Crystallography Open Database)
##############################################################################
data_4124081
_citation_journal_full    'Journal of the American Chemical Society'
_citation_journal_volume  '126'
_citation_page_first  '9769'
_citation_page_last   '9775'
_citation_year  '2004'
_citation_title  'Chemical evaluation of hypothetical uninodal zeolites'
loop_
_publ_author_name
  'Foster M.D.'
  'Friedrichs O.D.'
  'Bell R.G.'
  'Paz F.A.A.'
  'Klinowski J.'
_chemical_formula_sum  'O2 Si'
_chemical_name_common  'Silica'
_symmetry_space_group_name_H-M 'P 43 2 2'
_space_group_IT_number 95
_space_group_crystal_system 'tetragonal'
loop_
_symmetry_equiv_pos_as_xyz
   'x, y, z'
   '-y, x, z+0.75'
   '-x, -y, z+0.5'
   'y, -x, z+0.25'
   'x, -y, -z+0.5'
   '-x, y, -z'
   'y, x, -z+0.25'
   '-y, -x, -z+0.75'
_cell_length_a        4.43014
_cell_length_b        4.43014
_cell_length_c       16.10901
_cell_angle_alpha    90.0000
_cell_angle_beta     90.0000
_cell_angle_gamma    90.0000
_cell_formula_units_Z 8
loop_
_atom_site_label
_atom_site_fract_x
_atom_site_fract_y
_atom_site_fract_z
_atom_site_occupancy
_atom_site_B_iso_or_equiv
o      0.201   0.201   0.625    1.00000    1.000
si      0.578   0.019   0.093    1.00000    1.000
o      0.500   0.114   0.000    1.00000    1.000
o      0.796   0.299   0.126    1.00000    1.000
_cell_measurement_wavelength    1.541874
_cell_measurement_radiation   'x-rays'
_exptl_crystal_density_diffrn    2.524000
loop_
_pd_peak_d_spacing
_pd_peak_intensity
     4.430140         17.22
     4.271554         97.67
     4.027253       1000.00
     3.881726        862.13
     3.417241        400.56
     3.132582        731.92
     3.074981        100.01
     2.979975         25.90
     2.919548         99.17
     2.705798         11.00
     2.605621         24.56
     2.472629         93.87
     2.296088        173.58
     2.245950         17.48
     2.215070          9.97
     2.194421          6.46
     2.135777          0.50
     2.047685          0.34
     2.042191         28.23
     2.038554         21.51
     2.013626         77.20
     1.981219          4.65
     1.966403         10.15
     1.940863         20.22
     1.923872         84.47
     1.858735        111.63
     1.854622         15.99
     1.833149          0.34
     1.825289         34.50
     1.777741         24.22
     1.708620         14.47
     1.693863          4.71
     1.687655          9.14
     1.659558          2.46
     1.595901          1.14
     1.594164         77.03
     1.566291         64.03
     1.558939         90.11
     1.554093          4.40
     1.537490         18.13
     1.513921        113.03
     1.503629         54.11
     1.501449         12.31
     1.489987         21.06
     1.476713          0.18
     1.470547          0.51
     1.459774         57.22
     1.452503          5.37
     1.432581          2.75
     1.423851         16.35
     1.412252          2.18
     1.408648          1.17
     1.400933         14.05
     1.395665         55.51
     1.392185         14.86
     1.390454          6.59
     1.386445          6.11
     1.380212          0.00
     1.355558         35.70
     1.352899          5.21
     1.342420          5.49
     1.342418          1.54
     1.328148         56.25
     1.326645          2.11
     1.323162          7.44
     1.302810          0.52
     1.294837         40.62
     1.293909          9.84
     1.284730          0.14
     1.249884         51.98
     1.242839          5.25
     1.242018         21.92
     1.236314          8.55
     1.233893         28.91
     1.228700          3.29
     1.225141          5.27
     1.221612          7.40
     1.214648          0.79
     1.197743         55.91
     1.196641         24.50
     1.193351          0.00
     1.190814          4.37
     1.178709          0.01
     1.177658          4.41
     1.175220         11.68
     1.152278          8.48
     1.149993          0.16
     1.148045          0.42
     1.148044         48.62
     1.139080         16.73
     1.122975          0.35
     1.117259          7.37
     1.113692          0.58
     1.111334          0.45
     1.107535          3.33
     1.104927         23.02
     1.103197          3.40
     1.097211          0.10
     1.088547          7.22
     1.084703         21.22
     1.083883         16.03
     1.081437         16.74
     1.080086          0.43
     1.074467          4.56
     1.072085          1.15
     1.069717          0.42
     1.067888          3.91
     1.065032          3.03
     1.057103          4.03
     1.053581         17.31
     1.050588          8.54
     1.048856          3.74
     1.047377          6.00
     1.044194          0.12
     1.043705          0.07
     1.042007          4.19
     1.039833          1.62
     1.038153         16.25
     1.035528          4.17
     1.024994          4.95
     1.023843         15.07
     1.021095          0.54
     1.019277          3.15
     1.015893          1.25
     1.012989         17.43
     1.012321          1.11
     1.010771          1.80
     1.006813          0.36
##############################################################################
###                            Comments                                    ###
##############################################################################
###   Diffraction pattern calculated by Match!. 
###   I/Ic calculated by Match!. 
###   Space group has been derived from given symmetry operations. 
##############################################################################


