##############################################################################
###               Crystal structure data exported by Match!                ###
##############################################################################
###                           Data published by:                           ###
###                                                                        ###
###               COD (Crystallography Open Database)
##############################################################################
data_1514232
_citation_journal_full    'Comptes Rendus Hebdomadaires des Seances de l`Academie des Sciences (1884 - 1965)'
_citation_journal_volume  '230'
_citation_page_first  '1360'
_citation_page_last   '1362'
_citation_year  '1950'
_citation_title  'Sur la structure cristalline des bioxydes de mangan\`ese'
loop_
_publ_author_name
  'Brenet J.'
_chemical_formula_sum  'Mn O2'
_chemical_name_common  'Manganese Oxide (1/2)'
_symmetry_space_group_name_H-M 'P 42/m n m'
_space_group_IT_number 136
_space_group_crystal_system 'tetragonal'
loop_
_symmetry_equiv_pos_as_xyz
   'x, y, z'
   '-y+0.5, x+0.5, z+0.5'
   '-x, -y, z'
   'y+0.5, -x+0.5, z+0.5'
   'x+0.5, -y+0.5, -z+0.5'
   '-x+0.5, y+0.5, -z+0.5'
   'y, x, -z'
   '-y, -x, -z'
   '-x, -y, -z'
   'y+0.5, -x+0.5, -z+0.5'
   'x, y, -z'
   '-y+0.5, x+0.5, -z+0.5'
   '-x+0.5, y+0.5, z+0.5'
   'x+0.5, -y+0.5, z+0.5'
   '-y, -x, z'
   'y, x, z'
_cell_length_a        4.39500
_cell_length_b        4.39500
_cell_length_c        2.86000
_cell_angle_alpha    90.0000
_cell_angle_beta     90.0000
_cell_angle_gamma    90.0000
_cell_formula_units_Z 2
loop_
_atom_site_label
_atom_site_fract_x
_atom_site_fract_y
_atom_site_fract_z
_atom_site_occupancy
_atom_site_B_iso_or_equiv
mn      0.000   0.000   0.000    1.00000    1.000
o      0.303   0.303   0.000    1.00000    1.000
_cell_measurement_wavelength    1.541874
_cell_measurement_radiation   'x-rays'
_exptl_crystal_density_diffrn    5.226000
loop_
_pd_peak_d_spacing
_pd_peak_intensity
     3.107734       1000.00
     2.397138        526.80
     2.197500         92.00
     2.104464        132.08
     1.965504         42.39
     1.619855        502.25
     1.553867        142.24
     1.430000         64.49
     1.389821         77.80
     1.365362          3.18
     1.303891        152.64
     1.299071         85.19
     1.250039          7.30
     1.218954          1.38
     1.198569         22.70
     1.156341          6.53
     1.121353         42.11
     1.098750         23.90
     1.065944          5.71
     1.052232         54.61
     1.035911         27.60
##############################################################################
###                            Comments                                    ###
##############################################################################
###   Diffraction pattern calculated by Match!. 
###   I/Ic calculated by Match!. 
###   Space group has been derived from given symmetry operations. 
##############################################################################


