##############################################################################
###               Crystal structure data exported by Match!                ###
##############################################################################

data_9009464
_citation_journal_full    'Mineralogical Magazine'
_citation_journal_volume  '49'
_citation_page_first  '87'
_citation_page_last   '89'
_citation_year  '1985'
_citation_title  'Refinement of the crystal structure of botallackiteLocality: Botallack mine, Cornwall, England'
loop_
_publ_author_name
  'Hawthorne F. C.'
_chemical_formula_sum  'Cl Cu2 H3 O3'
_chemical_name_mineral  'Botallackite'
_symmetry_space_group_name_H-M 'P 1 21/m 1'
_space_group_IT_number 11
_space_group_crystal_system 'monoclinic'
loop_
_symmetry_equiv_pos_as_xyz
   'x, y, z'
   '-x, y+0.5, -z'
   '-x, -y, -z'
   'x, -y+0.5, z'
_cell_length_a        5.71700
_cell_length_b        6.12600
_cell_length_c        5.63600
_cell_angle_alpha    90.0000
_cell_angle_beta     93.0700
_cell_angle_gamma    90.0000
loop_
_atom_site_label
_atom_site_fract_x
_atom_site_fract_y
_atom_site_fract_z
_atom_site_occupancy
_atom_site_B_iso_or_equiv
cu      0.491   0.250   -0.005    1.00000    0.686
cu      0.500   0.000   0.500    1.00000    0.726
cl      0.134   0.250   0.297    1.00000    1.255
o      0.669   0.250   0.625    1.00000    1.026
o      0.641   0.008   0.183    1.00000    1.026
h      0.776   0.250   0.533    1.00000    0.394
h      0.734   0.042   0.169    1.00000    0.394
_cell_measurement_wavelength    1.541874
_cell_measurement_radiation   'x-rays'
_exptl_crystal_density_diffrn    3.598000
loop_
_pd_peak_d_spacing
_pd_peak_intensity
     5.708795       1000.00
     5.627912          4.16
     4.176438          6.24
     4.144453         24.16
     4.119647          0.07
     3.904641          7.63
     3.418545         14.91
     3.292666         35.80
     3.063000          3.20
     2.854398        107.29
     2.813956         59.97
     2.699044         19.40
     2.690353        140.70
     2.602541         21.46
     2.587319         22.72
     2.579366        238.43
     2.557086          0.31
     2.492412         13.61
     2.472034         46.70
     2.458036         54.87
     2.409971        373.66
     2.395341          6.39
     2.377235          0.01
     2.308647          6.29
     2.292424         10.04
     2.088219          0.13
     2.072227          0.12
     2.059824         82.20
     1.983301        114.39
     1.972987          8.01
     1.952409          2.98
     1.952320         42.43
     1.933245        118.13
     1.923689          2.36
     1.922701          1.76
     1.919552          0.76
     1.902932         35.67
     1.875971          0.03
     1.860141          9.56
     1.832701          0.57
     1.829576          1.85
     1.817274          3.98
     1.811212          1.84
     1.809494          6.09
     1.793748          5.63
     1.774073          0.01
     1.755811          4.49
     1.754560          1.38
     1.736888          1.05
     1.709272          2.78
     1.704055          2.24
     1.686740          0.67
     1.660778          2.80
     1.652699          0.44
     1.646333          1.43
     1.617028         29.37
     1.616391          3.50
     1.607719          1.54
     1.606517          1.97
     1.601021          0.15
     1.599769         98.39
     1.579565          1.43
     1.574340          2.29
     1.572682         35.07
     1.563477          2.96
     1.559040         54.11
     1.555058          1.18
     1.538557         14.19
     1.535165         64.51
     1.531500         46.75
     1.530532          1.26
     1.522468         34.42
     1.492214          1.68
     1.484890          1.11
     1.479197         35.65
     1.477761          0.12
     1.450173          0.89
     1.435514          0.01
     1.429989          1.84
     1.427199          4.99
     1.425752          0.64
     1.423539         17.43
     1.411138          2.28
     1.406978         13.30
     1.401407          0.03
     1.392146          1.37
     1.389975          1.56
     1.383423          4.48
     1.381484          1.68
     1.374858          2.11
     1.373216          1.16
     1.371275          0.48
     1.369123         27.30
     1.366117          0.66
     1.366086          0.08
     1.363928          1.98
     1.355001          0.24
     1.349522         18.44
     1.349441          0.05
     1.349412         16.72
     1.345177         11.51
     1.339963          0.15
     1.339238          1.03
     1.333336          1.39
     1.330784          0.09
     1.319921          2.67
     1.317819          3.11
     1.316867         38.48
     1.304850          1.79
     1.301900         12.21
     1.301547          0.25
     1.301270         14.35
     1.293660          0.26
     1.289683         11.55
     1.278543          0.01
     1.274359         27.99
     1.273129          1.53
     1.272871          0.23
     1.267690          0.99
     1.263190          0.74
     1.262019          0.03
     1.260791          0.16
     1.253050         19.27
     1.247626         19.60
     1.246206         16.29
     1.236017          8.18
     1.234885          0.11
     1.229018         20.26
     1.228804          0.51
     1.224704          0.64
     1.221194          0.00
     1.211601          0.28
     1.204986         14.18
     1.197922          0.09
     1.197886          9.70
     1.197670          0.13
     1.197160          0.51
     1.193096         13.11
     1.188618          2.31
     1.186364          0.07
     1.175190          0.19
     1.174364          0.31
     1.169799          0.64
     1.169465          0.40
     1.169002          0.46
     1.166355          0.01
     1.161453          6.30
     1.159286          0.00
     1.158586          0.42
     1.155470          0.30
     1.154323          0.06
     1.153789          0.53
     1.146212          1.63
     1.145772          1.24
     1.145327          0.02
     1.141759          7.42
     1.141124          0.74
     1.139515          0.05
     1.135431          0.63
     1.130827          0.00
     1.125867          0.94
     1.125803          1.42
     1.125582          0.00
     1.123340          0.02
     1.122430          0.00
     1.115721          0.31
     1.112039          0.49
     1.111941         12.68
     1.108901          0.67
     1.108506          0.18
     1.107630          0.21
     1.107467          0.22
     1.107051          0.00
     1.106695          0.00
     1.103429          9.84
     1.099534          0.34
     1.097767          0.45
     1.097664          0.77
     1.097555          0.94
     1.097390          0.21
     1.093266          0.48
     1.090413          0.05
     1.090004          5.45
     1.089957          0.06
     1.089801          0.09
     1.085999          0.07
     1.085953          0.00
     1.085420          6.77
     1.082592          0.51
     1.078297          2.02
     1.076261          0.17
     1.069849          0.31
     1.066790          0.01
     1.063755          0.00
     1.061971          0.57
     1.060839         16.68
     1.057397          0.18
     1.056506          4.34
     1.053005          0.36
     1.050973          0.13
     1.048338         13.22
     1.044109          3.20
     1.041618          3.05
     1.041482          2.84
     1.038782          6.42
     1.038122          0.29
     1.037771          1.08
     1.036113          8.76
     1.033883          0.01
     1.030147          0.40
     1.029912          4.31
     1.029645          8.58
     1.028482          0.01
     1.026598          3.27
     1.025805          0.62
     1.024162          1.06
     1.022406          0.75
     1.021000          0.12
     1.019453          0.06
     1.018555          0.42
     1.017111          0.34
     1.015658          0.40
     1.014821          0.23
     1.014287          0.96
     1.012787          0.87
     1.012467         11.53
     1.009572          0.41
     1.008148          0.20
     1.007437         11.61
##############################################################################
###                            Comments                                    ###
##############################################################################
###   Diffraction pattern calculated by Match!. 
###   I/Ic calculated by Match!. 
##############################################################################


