##############################################################################
###               Crystal structure data exported by Match!                ###
##############################################################################

data_1011014
_citation_journal_full    'Zeitschrift fuer Kristallographie, Kristallgeometrie, Kristallphysik,Kristallchemie (-144,1977)'
_citation_journal_volume  '93'
_citation_page_first  '136'
_citation_page_last   '145'
_citation_year  '1936'
_citation_title  'The Crystal Structure of Cupric Chloride Dihydrate Cu Cl2 (H2 O)2'
loop_
_publ_author_name
  'Harker D'
_chemical_formula_sum  'Cl2 Cu H4 O2'
_chemical_name_mineral  'Eriochalcite'
_chemical_name_common  'Copper dichloride dihydrate'
_symmetry_space_group_name_H-M 'P b m n'
_space_group_IT_number 53
_space_group_crystal_system 'orthorhombic'
loop_
_symmetry_equiv_pos_as_xyz
   'x, y, z'
   '-x+0.5, -y+0.5, z'
   'x+0.5, -y+0.5, -z'
   '-x, y, -z'
   '-x, -y, -z'
   'x+0.5, y+0.5, -z'
   '-x+0.5, y+0.5, z'
   'x, -y, z'
_cell_length_a        7.38000
_cell_length_b        8.04000
_cell_length_c        3.72000
_cell_angle_alpha    90.0000
_cell_angle_beta     90.0000
_cell_angle_gamma    90.0000
_cell_formula_units_Z 2
loop_
_atom_site_label
_atom_site_fract_x
_atom_site_fract_y
_atom_site_fract_z
_atom_site_occupancy
_atom_site_B_iso_or_equiv
cu      0.000   0.000   0.000    1.00000    1.000
o      0.000   0.250   0.000    1.00000    1.000
cl      0.250   0.000   0.370    1.00000    1.000
_cell_measurement_wavelength    1.541874
_cell_measurement_radiation   'x-rays'
_exptl_crystal_density_diffrn    2.504000
_exptl_crystal_density_meas      2.450000
loop_
_pd_peak_d_spacing
_pd_peak_intensity
     5.436828       1000.00
     4.020000        602.61
     3.720000        119.24
     3.690000         36.16
     3.321850        180.87
     3.070126        478.31
     2.730342          6.77
     2.718414         46.52
     2.619766        726.50
     2.560713        157.91
     2.519045        134.86
     2.352352        109.10
     2.194837        261.02
     2.085813        147.28
     2.051921         35.85
     2.010000        190.76
     1.988193        124.90
     1.860000         46.19
     1.845000        137.64
     1.827607         46.12
     1.812276         44.75
     1.803599         41.05
     1.768371         23.60
     1.765118          8.40
     1.759862         80.20
     1.719691         36.33
     1.688066          9.45
     1.676829         80.15
     1.660925         69.49
     1.652876         17.75
     1.645567         57.17
     1.629223         59.51
     1.594704        232.47
     1.571138         25.74
     1.535063         20.62
     1.528701          0.14
     1.496308         42.16
     1.483646         18.87
     1.459013         37.95
     1.451739         18.58
     1.447344         36.70
     1.435877         17.66
     1.391878         29.23
     1.371952          7.36
     1.365171         24.82
     1.359207         77.73
     1.352404         27.53
     1.345963         13.49
     1.342397         25.33
     1.340000         16.99
     1.309883         20.59
     1.298419         11.87
     1.298017         23.10
     1.292887         11.36
     1.280356         44.53
     1.276658         10.31
     1.265665         20.75
     1.260703          0.02
     1.259522          1.28
     1.245435          6.38
     1.242701         10.05
     1.240000         21.54
     1.230000          0.62
     1.222859          3.62
     1.221232         17.85
     1.208955         17.11
     1.200247         16.61
     1.193682         16.28
     1.192996         28.60
     1.184911         15.83
     1.176176          1.01
     1.175408          2.56
     1.169927          6.19
     1.167819         31.11
     1.156192          7.29
     1.144419         13.71
     1.134909          6.64
     1.133151          7.29
     1.128172          0.25
     1.121950          7.06
     1.121456         23.10
     1.112517         12.31
     1.111148         12.85
     1.107283          2.59
     1.097418         19.30
     1.096929         11.69
     1.090412         11.44
     1.087366          5.66
     1.087234          1.95
     1.085515         11.26
     1.084214         15.97
     1.075624         11.71
     1.067527          4.68
     1.061612         10.44
     1.055335         23.68
     1.049149          0.44
     1.045337          4.97
     1.044707          4.44
     1.043692          9.89
     1.042906          5.14
     1.040905          0.04
     1.040723          4.90
     1.029161         22.04
     1.025961          9.33
     1.023375          9.33
     1.014653          2.51
     1.014336          2.72
     1.009759         38.53
##############################################################################
###                            Comments                                    ###
##############################################################################
###   synthetic
###   Diffraction pattern calculated by Match!. 
###   I/Ic calculated by Match!. 
###   Space group has been derived from given symmetry operations. 
##############################################################################


