##############################################################################
###               Crystal structure data exported by Match!                ###
##############################################################################
###                           Data published by:                           ###
###                                                                        ###
###               COD (Crystallography Open Database)
##############################################################################
data_4002437
_citation_journal_full    'Chemistry of Materials (1,1989-)'
_citation_journal_volume  '18'
_citation_page_first  '1464'
_citation_page_last   '1469'
_citation_year  '2006'
_citation_title  'Magic silica clusters as nanoscale building units forsuper-(tris)tetrahedral materials'
loop_
_publ_author_name
  'Wojdel J.C.'
  'Zwijnenburg M.A.'
  'Bromley S.T.'
_chemical_formula_sum  'O2 Si'
_chemical_name_common  'Silica'
_symmetry_space_group_name_H-M 'P 21 21 2'
_space_group_IT_number 18
_space_group_crystal_system 'orthorhombic'
loop_
_symmetry_equiv_pos_as_xyz
   'x, y, z'
   '-x, -y, z'
   'x+0.5, -y+0.5, -z'
   '-x+0.5, y+0.5, -z'
_cell_length_a       11.60000
_cell_length_b       11.60000
_cell_length_c        5.20000
_cell_angle_alpha    90.0000
_cell_angle_beta     90.0000
_cell_angle_gamma    90.0000
_cell_formula_units_Z 16
loop_
_atom_site_label
_atom_site_fract_x
_atom_site_fract_y
_atom_site_fract_z
_atom_site_occupancy
_atom_site_B_iso_or_equiv
o      0.956   0.620   0.090    1.00000    1.000
o      0.736   0.538   0.082    1.00000    1.000
o      0.820   0.685   0.460    1.00000    1.000
o      0.891   0.862   0.753    1.00000    1.000
si      0.199   0.098   0.973    1.00000    1.000
o      0.139   0.110   0.251    1.00000    1.000
o      0.462   0.264   0.582    1.00000    1.000
si      0.424   0.156   0.764    1.00000    1.000
o      0.380   0.044   0.591    1.00000    1.000
si      0.655   0.076   0.744    1.00000    1.000
si      0.902   0.801   0.474    1.00000    1.000
o      0.316   0.180   0.961    1.00000    1.000
_cell_measurement_wavelength    1.541874
_cell_measurement_radiation   'x-rays'
_exptl_crystal_density_diffrn    2.281000
loop_
_pd_peak_d_spacing
_pd_peak_intensity
     8.202439        222.26
     5.800000         44.09
     5.200000          0.20
     5.187678        563.13
     4.745048       1000.00
     4.391819          0.08
     4.101219        129.29
     3.871761        281.32
     3.672591        136.90
     3.668242          1.12
     3.220194          0.02
     3.217261        144.69
     3.102854         48.28
     2.997473        249.58
     2.900000        108.88
     2.813413         48.15
     2.735946        224.02
     2.734146          2.84
     2.600000          5.76
     2.593839          1.13
     2.537053         16.82
     2.532755        117.20
     2.478467         11.41
     2.474460         41.72
     2.420013          0.00
     2.372524         29.61
     2.324405         14.81
     2.321099         49.98
     2.320000         34.13
     2.274947          4.50
     2.195909          2.49
     2.157591         15.29
     2.154066          0.88
     2.121210         16.18
     2.118697         24.08
     2.084217         64.32
     2.050610          8.82
     2.022204         76.53
     1.990076         22.69
     1.989384         37.27
     1.935881         35.67
     1.933333          0.33
     1.909473         50.17
     1.907639          0.01
     1.907028         14.69
     1.884117         12.07
     1.858051         34.04
     1.836295         25.30
     1.834121          4.11
     1.812139          3.31
     1.811616          1.33
     1.790423         21.87
     1.733333          0.05
     1.731048          6.90
     1.729681          8.48
     1.729226         11.45
     1.714301          1.61
     1.712089         19.03
     1.710767          0.62
     1.695881          0.02
     1.660757         10.94
     1.658746         19.59
     1.643993         17.78
     1.640876         11.68
     1.640488         15.87
     1.610097         17.01
     1.608631          0.82
     1.596594          0.01
     1.593383         16.91
     1.581683          7.53
     1.579946         30.53
     1.578906          1.29
     1.567181         16.89
     1.564480          3.32
     1.551427          0.02
     1.537735         10.07
     1.536777          0.77
     1.525959         23.43
     1.523466         50.37
     1.523155          9.86
     1.498736          7.68
     1.487828          3.00
     1.486382          4.63
     1.485228          0.11
     1.475739         10.78
     1.463940          0.00
     1.461737         11.77
     1.450000          2.91
     1.441166         11.23
     1.439852         52.35
     1.438803          5.29
     1.428117          1.07
     1.406707          5.65
     1.397435          0.00
     1.396716          5.73
     1.388580          8.83
     1.387404         35.80
     1.386700         13.80
     1.378737         15.75
     1.367973          8.08
     1.367073          6.91
     1.358559          5.79
     1.357897          9.12
     1.357677         14.49
     1.350418          6.51
     1.348473          1.05
     1.323775          0.01
     1.322146          0.00
     1.314239         16.20
     1.313641         15.46
     1.306865         38.81
     1.305298          7.45
     1.300000          9.98
     1.296919          4.27
     1.291912          3.10
     1.290587          4.89
     1.289643          2.39
     1.283974          1.52
     1.282673          1.81
     1.281006         10.53
     1.268526          1.17
     1.266378          2.59
     1.261009         11.33
     1.259776         14.72
     1.258898         32.85
     1.258372          5.38
     1.258197         18.19
     1.252412          1.81
     1.251032          8.36
     1.243820          9.17
     1.239233          2.12
     1.237230          0.16
     1.232222          0.84
     1.229598          0.00
     1.225328          0.91
     1.224197         26.56
     1.222908         44.04
     1.222747          8.33
     1.210006         11.42
     1.205320          7.65
     1.203477          2.62
     1.197807          0.04
     1.197052          0.53
     1.196599          0.39
     1.191471          9.13
     1.190283         12.44
     1.186262         10.56
     1.180107          5.40
     1.179097          0.32
     1.177802          0.26
     1.174048          1.03
     1.173053          7.57
     1.171777          5.86
     1.162203          1.88
     1.160550          3.81
     1.160000          0.80
     1.154785          1.42
     1.154243          0.36
     1.149105          6.17
     1.148704          7.62
     1.144166          0.03
     1.143113          0.00
     1.137474          2.45
     1.134091         16.83
     1.132555          8.30
     1.132172          2.98
     1.128710          2.39
     1.127825          3.51
     1.126817          4.42
     1.126692          0.01
     1.113014          6.56
     1.112166          0.73
     1.111561          1.09
     1.111199          1.76
     1.111079          0.04
     1.107089          4.82
     1.106493          0.81
     1.101141          5.03
     1.097955          3.99
     1.092266          0.21
     1.091236          0.12
     1.088249          0.44
     1.086552          1.23
     1.078795          0.01
     1.077033          0.13
     1.074160          2.14
     1.073398          0.03
     1.072855          0.16
     1.072420          0.06
     1.068832          2.50
     1.068295          2.97
     1.067974          1.75
     1.064323          3.77
     1.060605          6.11
     1.059348         13.01
     1.056200          0.94
     1.054958          4.68
     1.054649          7.33
     1.050317          1.83
     1.050215          0.01
     1.042109          0.66
     1.040000          0.02
     1.039111          0.49
     1.038421          2.77
     1.037536         11.08
     1.035845          6.74
     1.034285          1.25
     1.033799          4.50
     1.033507          0.07
     1.031740          0.02
     1.030198          4.89
     1.029430          0.19
     1.025305          0.00
     1.023673          0.03
     1.022825          1.44
     1.021698          0.39
     1.019711          5.06
     1.018872          2.96
     1.018222          7.59
     1.017480          1.11
     1.017387          0.32
     1.011102          0.94
     1.008093          0.01
     1.007283          1.13
##############################################################################
###                            Comments                                    ###
##############################################################################
###   Diffraction pattern calculated by Match!. 
###   I/Ic calculated by Match!. 
###   Space group has been derived from given symmetry operations. 
##############################################################################


