##############################################################################
###               Crystal structure data exported by Match!                ###
##############################################################################
###                           Data published by:                           ###
###                                                                        ###
###               COD (Crystallography Open Database)
##############################################################################
data_1000033
_citation_journal_full    'American Mineralogist'
_citation_journal_volume  '56'
_citation_page_first  '758'
_citation_page_last   '767'
_citation_year  '1971'
_citation_title  'Crystal structures of aragonite, strontianite, and witherite'
loop_
_publ_author_name
  'de Villiers J. P. R.'
_chemical_formula_sum  'C Ba O3'
_chemical_name_mineral  'Witherite'
_chemical_name_common  'Barium carbonate'
_symmetry_space_group_name_H-M 'P m c n'
_space_group_IT_number 62
_space_group_crystal_system 'orthorhombic'
loop_
_symmetry_equiv_pos_as_xyz
   'x, y, z'
   '-x+0.5, -y+0.5, z+0.5'
   'x+0.5, -y, -z'
   '-x, y+0.5, -z+0.5'
   '-x, -y, -z'
   'x+0.5, y+0.5, -z+0.5'
   '-x+0.5, y, z'
   'x, -y+0.5, z+0.5'
_cell_length_a        5.31260
_cell_length_b        8.89580
_cell_length_c        6.42840
_cell_angle_alpha    90.0000
_cell_angle_beta     90.0000
_cell_angle_gamma    90.0000
_cell_formula_units_Z 4
loop_
_atom_site_label
_atom_site_fract_x
_atom_site_fract_y
_atom_site_fract_z
_atom_site_occupancy
_atom_site_B_iso_or_equiv
ba      0.250   0.416   0.755    1.00000    0.462
c      0.250   0.757   -0.081    1.00000    1.117
o      0.250   0.901   -0.088    1.00000    1.197
o      0.460   0.684   -0.079    1.00000    1.000
_cell_measurement_wavelength    1.541874
_cell_measurement_radiation   'x-rays'
_exptl_crystal_density_diffrn    4.314000
loop_
_pd_peak_d_spacing
_pd_peak_intensity
     5.210354          1.09
     4.561135         82.56
     4.447900         38.06
     3.719899       1000.00
     3.657702        509.59
     3.214200        143.47
     3.022930         41.74
     3.012699          7.84
     2.750051         29.76
     2.692610          9.24
     2.656300        147.89
     2.627370        217.69
     2.605177        107.57
     2.589244        271.89
     2.401742          0.06
     2.366506          7.83
     2.339075          0.46
     2.280568         70.22
     2.223950         27.22
     2.179458          1.25
     2.149321        323.50
     2.101730        151.13
     2.083216          0.61
     2.047564        144.44
     2.016376        264.85
     1.995389          1.09
     1.954350          3.55
     1.939438        201.75
     1.930460         96.84
     1.890995          7.93
     1.859950         40.12
     1.828851         23.24
     1.814386          1.56
     1.736788         21.06
     1.736785          0.02
     1.729255          0.48
     1.714699          3.26
     1.705208         19.72
     1.687068         14.88
     1.684903          0.06
     1.676672         89.96
     1.650808          0.00
     1.648207         87.03
     1.639232          0.82
     1.631808         84.28
     1.607100         21.15
     1.593889          4.63
     1.581499          6.05
     1.561622         46.43
     1.556601          0.18
     1.551038          0.38
     1.543080         20.55
     1.538257          0.12
     1.527987         24.74
     1.520378         43.44
     1.515762         32.94
     1.511465         15.09
     1.506349         25.64
     1.493800         24.49
     1.482633         22.33
     1.481838          0.60
     1.479561          0.43
     1.464547          0.58
     1.453773          1.17
     1.453643          0.01
     1.444706          0.30
     1.440619          0.59
     1.412928          0.31
     1.394079          0.21
     1.375026         33.93
     1.374377         74.68
     1.368831          0.25
     1.365461         70.61
     1.358888          0.03
     1.354242          0.12
     1.349250         63.61
     1.346305         33.81
     1.342996          0.40
     1.334283         59.33
     1.328150         23.56
     1.325538         59.32
     1.313685         12.76
     1.305052          1.12
     1.304971          0.37
     1.302588          6.81
     1.294622         43.71
     1.286995          0.00
     1.272626          4.57
     1.272459          0.55
     1.272197          0.07
     1.269141          0.01
     1.265116          0.15
     1.255114          3.76
     1.248397         39.10
     1.247434          1.62
     1.246701          0.01
     1.239966          1.00
     1.237459         34.63
     1.235959          4.54
     1.235117         16.22
     1.231854         37.66
     1.227484         18.94
     1.219234          0.29
     1.216775          0.19
     1.215963          0.63
     1.213729         32.54
     1.203032          0.33
     1.200871         34.76
     1.192594          0.03
     1.191129          0.09
     1.190087          0.29
     1.188341          0.00
     1.183253         12.43
     1.181808          0.06
     1.179578         10.82
     1.179577          0.17
     1.169538         10.08
     1.169138         12.14
     1.163635         10.19
     1.163376          0.34
     1.153609         11.82
     1.151534          0.01
     1.149647          0.02
     1.147583          2.08
     1.140284          5.21
     1.134152          0.15
     1.128581          0.05
     1.122757         30.58
     1.119966         32.24
     1.119908          0.19
     1.119436          0.04
     1.113067         16.14
     1.111975          2.83
     1.108084          0.15
     1.104456         36.47
     1.095703         14.77
     1.094197         24.57
     1.093055          0.10
     1.089729         16.25
     1.089413          0.17
     1.087972          0.87
     1.083007         23.30
     1.079764          0.94
     1.078062          0.47
     1.074660          8.24
     1.073117          0.35
     1.071747          1.55
     1.071400         12.44
     1.070628         25.24
     1.067503          0.12
     1.063713          0.09
     1.055021          1.31
     1.055020          0.00
     1.050865          2.98
     1.050255          0.51
     1.050010          0.19
     1.049296          0.15
     1.043011          4.28
     1.042071          1.23
     1.041608          2.05
     1.041093         22.49
     1.033354         19.61
     1.032480          1.45
     1.030890          0.00
     1.026583         18.35
     1.025726          1.35
     1.023782         11.98
     1.022584         19.94
     1.022147          0.19
     1.020342          0.00
     1.019415         20.03
     1.017069          1.12
     1.013052          0.01
     1.012913         23.73
     1.010819          0.19
     1.010354          0.01
     1.008828          1.05
     1.008188         23.32
     1.007643          0.61
     1.006628         16.35
##############################################################################
###                            Comments                                    ###
##############################################################################
###   from Anglesarke, Lancashire, England
###   Diffraction pattern calculated by Match!. 
###   I/Ic calculated by Match!. 
###   Space group has been derived from given symmetry operations. 
##############################################################################


