##############################################################################
###               Crystal structure data exported by Match!                ###
##############################################################################
###                           Data published by:                           ###
###                                                                        ###
###               COD (Crystallography Open Database)
##############################################################################
data_9014999
_citation_journal_full    'Zeitschrift fur Kristallographie'
_citation_journal_volume  '83'
_citation_page_first  '75'
_citation_page_last   '88'
_citation_year  '1932'
_citation_title  'The Crystal Structure of Kaolinite_cod_database_code 1011045'
loop_
_publ_author_name
  'Gruner W.'
_chemical_formula_sum  'Al2 O9 Si2'
_chemical_name_mineral  'Kaolinite'
_symmetry_space_group_name_H-M 'C 1 c 1'
_space_group_IT_number 9
_space_group_crystal_system 'monoclinic'
loop_
_symmetry_equiv_pos_as_xyz
   'x, y, z'
   'x+0.5, y+0.5, z'
   'x, -y, z+0.5'
   'x+0.5, -y+0.5, z+0.5'
_cell_length_a        5.14800
_cell_length_b        8.92000
_cell_length_c       14.53500
_cell_angle_alpha    90.0000
_cell_angle_beta    100.2000
_cell_angle_gamma    90.0000
loop_
_atom_site_label
_atom_site_fract_x
_atom_site_fract_y
_atom_site_fract_z
_atom_site_occupancy
_atom_site_B_iso_or_equiv
al      0.250   -0.167   0.000    1.00000    1.000
al      0.250   0.167   0.000    1.00000    1.000
si      0.008   0.500   0.188    1.00000    1.000
si      0.008   0.167   0.188    1.00000    1.000
o      -0.046   0.500   0.076    1.00000    1.000
o      -0.046   0.167   0.076    1.00000    1.000
o      -0.046   -0.167   0.076    1.00000    1.000
o      0.033   0.333   0.229    1.00000    1.000
o      0.283   -0.417   0.229    1.00000    1.000
o      0.283   0.083   0.229    1.00000    1.000
o      0.046   0.000   0.424    1.00000    1.000
o      -0.454   0.167   0.424    1.00000    1.000
o      0.046   0.333   0.424    1.00000    1.000
_cell_measurement_wavelength    1.541874
_cell_measurement_radiation   'x-rays'
_exptl_crystal_density_diffrn    2.570000
loop_
_pd_peak_d_spacing
_pd_peak_intensity
     7.152642       1000.00
     4.460000          1.56
     4.405550        477.83
     4.257861        252.26
     4.039097        495.97
     3.784544        261.17
     3.576321        555.33
     3.517070         61.43
     3.517055        138.13
     3.257279        103.70
     3.012900         77.12
     3.012887          4.80
     2.790096         34.53
     2.588430         75.33
     2.588420         42.79
     2.564374         83.88
     2.533315        205.88
     2.485741        204.76
     2.408153         30.28
     2.384214        102.86
     2.347988        659.13
     2.265070         18.73
     2.265060        286.02
     2.246651         21.48
     2.246642         46.58
     2.230000         14.87
     2.229362          6.89
     2.203389          8.07
     2.202772         41.32
     2.178512         15.87
     2.128931          4.40
     2.128378         11.87
     2.128373          9.61
     2.102631         14.99
     2.020019         13.78
     2.019548         28.70
     2.019541          3.06
     2.000803        149.48
     2.000798          0.00
     1.973499          2.41
     1.973492         11.48
     1.913560         33.17
     1.913550         63.48
     1.892272         28.70
     1.891886         16.66
     1.891878         14.15
     1.857863          7.89
     1.829817          0.00
     1.829812         39.50
     1.788160         22.10
     1.758844         15.92
     1.758535          1.92
     1.758527         23.56
     1.753653          5.47
     1.753647          5.83
     1.685446         12.29
     1.682735         21.55
     1.682187         11.99
     1.682186          2.40
     1.673867         23.50
     1.672942        179.26
     1.672938          0.00
     1.659924         10.89
     1.659923         16.13
     1.659731         12.44
     1.659395         23.87
     1.640517         10.25
     1.640514         10.52
     1.628639          0.20
     1.628394         15.46
     1.628387         13.88
     1.616951         14.25
     1.616468          9.16
     1.616463         17.27
     1.600514         19.41
     1.600506         71.49
     1.589102          1.07
     1.589099          8.94
     1.574545          8.34
     1.574540          2.94
     1.558327          7.20
     1.558325          0.64
     1.557894          9.43
     1.557888          7.64
     1.532635         94.46
     1.524619          6.26
     1.524615          6.61
     1.506644         13.05
     1.506450         17.77
     1.506443          3.36
     1.497235          2.02
     1.489241         11.25
     1.489239          5.44
     1.488863          5.18
     1.488857          1.39
     1.486667         87.70
     1.484240        157.25
     1.478703          0.00
     1.468517         79.49
     1.455558         33.21
     1.452197          7.33
     1.452193          7.47
     1.438508          7.68
     1.430528         19.88
     1.426657          1.43
     1.426653          2.96
     1.419287          0.00
     1.414558         12.22
     1.414236          1.19
     1.414230          3.98
     1.408727         23.47
     1.408724          0.00
     1.396764          5.51
     1.396760          0.00
     1.395048         12.32
     1.394895         11.09
     1.394889         10.38
     1.376285          2.98
     1.376280          3.23
     1.372780         11.95
     1.362174          1.40
     1.352408         73.68
     1.352401          7.27
     1.346366          0.00
     1.346361         13.05
     1.338226          0.75
     1.338224          2.52
     1.337953          2.33
     1.337946          4.46
     1.319200          0.00
     1.302941          3.38
     1.302938          0.86
     1.300277          3.53
     1.300272          0.60
     1.299841          0.00
     1.299838        107.88
     1.294337          8.81
     1.294215          0.28
     1.294210          6.33
     1.290426          7.54
     1.290421          0.00
     1.287368          0.00
     1.287000         11.80
     1.282187         30.97
     1.282186         56.11
     1.267010          0.00
     1.267009          0.00
     1.266660         42.05
     1.266657         13.19
     1.263085          3.44
     1.262857          4.65
     1.262851          1.72
     1.261515          6.27
     1.248488          0.66
     1.242871         15.13
     1.242869         45.32
     1.236546          4.65
     1.235800          6.14
     1.235583          3.27
     1.235582          0.78
     1.231952          3.19
     1.231951          3.27
     1.231692          0.00
     1.231687          8.29
     1.226679          8.04
     1.226497          1.22
     1.226493          1.35
     1.226467          3.85
     1.226466          3.14
     1.218472          0.35
     1.218470          3.06
     1.211281          0.00
     1.211279          0.00
     1.210975          2.73
     1.210971          9.95
     1.209028          4.18
     1.208825          2.70
     1.208824          5.48
     1.204214         15.48
     1.204211          0.00
     1.204076          2.08
     1.203978          7.00
     1.203974          6.78
     1.202208          0.00
     1.198182          0.54
     1.198180          3.03
     1.196956          2.48
     1.196954          2.67
     1.192107         15.04
     1.190989          2.75
     1.190987          1.03
     1.190797          0.93
     1.190791          2.80
     1.183924          2.39
     1.183923          0.18
     1.183734          3.24
     1.183732          2.42
     1.173996          8.34
     1.173994         28.26
     1.172357         11.01
     1.172352          0.00
     1.168663          4.30
     1.168659          0.91
     1.160746          3.37
     1.160741          5.54
     1.156371          0.60
     1.156367          2.96
     1.152762          5.73
     1.152587          1.81
     1.152584          0.56
     1.151677          1.75
     1.143178          8.18
     1.135071          1.57
     1.135067          1.78
     1.132785          0.00
     1.132782          0.00
     1.132535         23.52
     1.132530          0.51
     1.123405          5.55
     1.123325          5.49
     1.123321          3.99
     1.122993          0.63
     1.122991          1.19
     1.122831          1.05
     1.122826          0.71
     1.120067          0.00
     1.120065          0.03
     1.117063          4.69
     1.116905          0.46
     1.116901          1.54
     1.115000          0.92
     1.114681          1.36
     1.114027          0.00
     1.114022          5.24
     1.111628          0.12
     1.111313          0.22
     1.111312          0.06
     1.108493          0.57
     1.108490          0.42
     1.101694          0.84
     1.101387          1.10
     1.101386          1.93
     1.097697          0.87
     1.097693          3.23
     1.090648          0.51
     1.090644          0.56
     1.089258         20.50
     1.089256         29.62
     1.085760          0.00
     1.085714          0.71
     1.085420          0.94
     1.085418          0.55
     1.078310          0.26
     1.078308          1.15
     1.078166          1.03
     1.078163          1.91
     1.068368          0.40
     1.064465          2.83
     1.064189          1.39
     1.064186          0.47
     1.059592          1.60
     1.059590          0.45
     1.059456          0.42
     1.059451          0.43
##############################################################################
###                            Comments                                    ###
##############################################################################
###   Diffraction pattern calculated by Match!. 
###   I/Ic calculated by Match!. 
###   Space group has been derived from given symmetry operations. 
##############################################################################


