##############################################################################
###               Crystal structure data exported by Match!                ###
##############################################################################
###                           Data published by:                           ###
###                                                                        ###
###               COD (Crystallography Open Database)
##############################################################################
data_4124077
_citation_journal_full    'Journal of the American Chemical Society'
_citation_journal_volume  '126'
_citation_page_first  '9769'
_citation_page_last   '9775'
_citation_year  '2004'
_citation_title  'Chemical evaluation of hypothetical uninodal zeolites'
loop_
_publ_author_name
  'Foster M.D.'
  'Friedrichs O.D.'
  'Bell R.G.'
  'Klinowski J.'
  'Paz F.A.A.'
_chemical_formula_sum  'O2 Si'
_chemical_name_common  'Silica'
_symmetry_space_group_name_H-M 'P c c n'
_space_group_IT_number 56
_space_group_crystal_system 'orthorhombic'
loop_
_symmetry_equiv_pos_as_xyz
   'x, y, z'
   '-x+0.5, -y+0.5, z'
   'x+0.5, -y, -z+0.5'
   '-x, y+0.5, -z+0.5'
   '-x, -y, -z'
   'x+0.5, y+0.5, -z'
   '-x+0.5, y, z+0.5'
   'x, -y+0.5, z+0.5'
_cell_length_a        4.68728
_cell_length_b        8.07960
_cell_length_c        8.33795
_cell_angle_alpha    90.0000
_cell_angle_beta     90.0000
_cell_angle_gamma    90.0000
_cell_formula_units_Z 8
loop_
_atom_site_label
_atom_site_fract_x
_atom_site_fract_y
_atom_site_fract_z
_atom_site_occupancy
_atom_site_B_iso_or_equiv
si      0.652   0.937   0.342    1.00000    1.000
o      0.750   0.750   0.363    1.00000    1.000
o      0.428   0.949   0.195    1.00000    1.000
o      0.500   0.000   0.500    1.00000    1.000
_cell_measurement_wavelength    1.541874
_cell_measurement_radiation   'x-rays'
_exptl_crystal_density_diffrn    2.527000
loop_
_pd_peak_d_spacing
_pd_peak_intensity
     4.168975        292.60
     4.054401        411.74
     4.039800       1000.00
     3.704850        314.77
     3.646186        369.36
     3.115104        988.51
     2.906556         13.71
     2.901162         51.21
     2.872733        436.81
     2.466872         88.26
     2.343640          0.04
     2.335180         19.72
     2.292405         16.50
     2.262212         18.32
     2.248655         43.07
     2.173070         48.22
     2.084487         29.33
     2.057393          2.42
     2.042954          6.57
     2.037343          4.59
     2.027201         57.42
     2.019900         39.41
     2.018396          6.93
     1.980620         64.32
     1.969817         63.31
     1.904640        115.50
     1.853827         56.26
     1.852425          1.70
     1.823093          3.24
     1.817778          1.43
     1.810722        187.21
     1.787883         17.08
     1.749180         22.01
     1.729510          1.09
     1.722769         52.35
     1.694794         13.65
     1.648423          3.82
     1.637821        119.28
     1.627651          6.28
     1.557552         36.65
     1.555061         12.89
     1.542905          1.66
     1.542234          0.09
     1.534007          4.83
     1.530047          0.52
     1.529393          8.29
     1.527686         37.16
     1.508687          9.30
     1.506697         34.42
     1.504919         46.85
     1.502672          1.40
     1.491730          2.94
     1.464282         20.30
     1.463054          4.96
     1.453278          4.45
     1.450581          0.12
     1.439642          0.99
     1.436367          3.81
     1.435477         26.71
     1.434412          3.35
     1.389658         48.02
     1.385740          1.09
     1.375620         31.24
     1.369549          7.80
     1.357082          0.19
     1.351467          0.55
     1.348309         11.04
     1.346600         14.53
     1.343022        103.06
     1.340362        110.32
     1.339922         46.01
     1.338773         14.47
     1.334057          0.00
     1.332337          2.93
     1.314584          9.44
     1.314083         31.57
     1.313731          6.78
     1.290597          1.18
     1.287846          8.72
     1.285604          1.00
     1.281412         13.24
     1.278933         27.95
     1.277116          3.33
     1.267384         25.82
     1.265300          1.13
     1.250212          8.28
     1.240142         21.20
     1.236055         33.99
     1.235508          0.60
     1.234950          4.37
     1.233436          9.28
     1.232198         28.92
     1.222497         28.09
     1.215395         18.48
     1.213097          4.75
     1.199966          0.20
     1.195325          0.17
     1.194326         12.92
     1.194198         14.98
     1.184887          0.80
     1.182454          1.09
     1.173273          0.53
     1.171820          2.50
     1.167590          7.04
     1.156308          8.84
     1.148630         29.08
     1.146203          1.11
     1.144878          2.23
     1.142836         28.55
     1.133986          6.81
     1.131106         14.36
     1.129246          1.45
     1.128983          0.45
     1.128103          6.06
     1.127401         11.21
     1.126456          0.82
     1.125429          7.51
     1.124328          0.65
     1.123238          2.18
     1.121423         10.67
     1.120749          0.04
     1.117265          0.14
     1.115315          1.08
     1.113182          6.30
     1.112382          0.09
     1.112183          0.60
     1.110760          0.02
     1.110009          6.49
     1.099544         11.22
     1.097303         15.49
     1.092550          2.13
     1.086535          8.78
     1.084563          1.68
     1.082321          0.01
     1.076459         26.58
     1.070256          0.25
     1.065702          5.19
     1.063059          0.07
     1.061070          7.66
     1.053629          9.85
     1.052807          3.37
     1.049955          0.09
     1.043152          2.01
     1.042244          0.10
     1.041406          1.19
     1.040510         19.54
     1.039959          4.14
     1.039422          9.00
     1.038368          2.54
     1.033679          4.36
     1.029898          0.06
     1.028697          0.61
     1.027978         15.12
     1.027570          9.58
     1.026976          4.98
     1.022439          5.59
     1.021477          3.85
     1.018671          0.82
     1.017396         10.85
     1.013600          1.91
     1.013410          0.53
     1.012483          6.73
     1.009950          6.22
     1.009762          0.11
     1.009425          0.81
     1.009198          1.43
##############################################################################
###                            Comments                                    ###
##############################################################################
###   Diffraction pattern calculated by Match!. 
###   I/Ic calculated by Match!. 
###   Space group has been derived from given symmetry operations. 
##############################################################################


