##############################################################################
###               Crystal structure data exported by Match!                ###
##############################################################################
###                           Data published by:                           ###
###                                                                        ###
###               COD (Crystallography Open Database)
##############################################################################
data_2108027
_citation_journal_full    'Acta Crystallographica Section B'
_citation_journal_volume  '73(1)'
_citation_page_first  '27'
_citation_page_last   '32'
_citation_year  '2017'
_citation_title  'Deformations of the \a-Fe~2~O~3~ rhombohedral lattice across the N\'eeltemperature'
loop_
_publ_author_name
  'Fabrykiewicz P.'
  'Stekiel M.'
  'Sosnowska I.'
  'Przenios\/lo R.'
_chemical_formula_sum  'Fe2 O3'
_chemical_name_mineral  'Hematite'
_chemical_name_common  'Iron(III) oxide'
_symmetry_space_group_name_H-M 'C 1 2/c 1'
_space_group_IT_number 15
_space_group_crystal_system 'monoclinic'
loop_
_symmetry_equiv_pos_as_xyz
   'x, y, z'
   'x+0.5, y+0.5, z'
   '-x, y, -z+0.5'
   '-x+0.5, y+0.5, -z+0.5'
   '-x, -y, -z'
   '-x+0.5, -y+0.5, -z'
   'x, -y, z+0.5'
   'x+0.5, -y+0.5, z+0.5'
_cell_length_a        9.61865
_cell_length_b        5.03554
_cell_length_c       13.75158
_cell_angle_alpha    90.0000
_cell_angle_beta    162.4043
_cell_angle_gamma    90.0000
_cell_formula_units_Z 4
loop_
_atom_site_label
_atom_site_fract_x
_atom_site_fract_y
_atom_site_fract_z
_atom_site_occupancy
_atom_site_B_iso_or_equiv
fe      0.000   0.000   0.145    1.00000    0.260
o      0.000   0.309   0.250    1.00000    0.039
o      -0.449   -0.156   -0.050    1.00000    0.039
_cell_measurement_wavelength    1.541874
_cell_measurement_radiation   'x-rays'
_cell_measurement_temperature    293.000000
_exptl_crystal_density_diffrn    5.267000
loop_
_pd_peak_d_spacing
_pd_peak_intensity
     4.157219          0.29
     3.683575        157.80
     3.682503        279.49
     2.700070       1000.00
     2.699572        491.35
     2.518051        745.34
     2.517770        362.34
     2.326171          0.01
     2.291930         30.12
     2.207232         91.29
     2.206791         92.93
     2.206729         92.17
     2.153576          0.14
     2.078610         20.00
     2.078540          8.45
     1.841787        197.40
     1.841252        378.35
     1.791272          0.05
     1.708800          0.11
     1.695182        230.58
     1.694869        236.32
     1.694727        231.54
     1.636736          2.97
     1.636711          3.78
     1.636574          1.96
     1.603164         10.12
     1.602899         13.63
     1.602843         11.91
     1.599398         46.34
     1.599119         85.59
     1.486514        153.82
     1.486316        160.93
     1.486265        163.88
     1.459421          0.01
     1.453851        151.53
     1.453689        311.39
     1.414135          2.12
     1.413782          0.98
     1.413755          1.42
     1.385740          0.01
     1.385615          0.01
     1.350035         31.35
     1.349786         15.24
     1.311560        114.76
     1.311397         57.08
     1.306430          9.42
     1.306235          9.69
     1.306118          9.71
     1.262904          0.97
     1.262735          0.62
     1.262610          1.06
     1.259025         72.98
     1.258885         36.58
     1.227858          6.99
     1.227674         12.66
     1.227512          6.75
     1.227501         12.42
     1.214147          5.07
     1.213979          5.20
     1.213937          6.36
     1.205046          0.46
     1.204909          0.21
     1.204851          0.34
     1.201693          0.00
     1.191335         10.08
     1.191309          8.63
     1.191239          7.55
     1.189961         20.73
     1.189672         22.64
     1.189616         23.32
     1.163368         28.88
     1.163086         60.66
     1.145965          2.19
     1.141198         45.86
     1.140943         43.63
     1.140929         47.89
     1.107321          0.14
     1.107212          0.27
     1.107173          0.32
     1.103616         43.37
     1.103396         43.35
     1.103365         43.61
     1.086870          0.02
     1.084617          0.03
     1.076983          5.42
     1.076788          8.61
     1.056080         49.54
     1.055954         47.01
     1.055825         46.96
     1.053271          0.00
     1.053107          0.00
     1.043136          3.02
     1.043010          3.29
     1.042924          3.11
     1.039305         30.17
     1.039270         13.56
     1.030190          0.28
     1.029915          0.17
     1.029900          0.13
     1.028042          0.01
     1.013481          0.01
##############################################################################
###                            Comments                                    ###
##############################################################################
###   Diffraction pattern calculated by Match!. 
###   I/Ic calculated by Match!. 
###   Space group has been derived from given symmetry operations. 
##############################################################################


