##############################################################################
###               Crystal structure data exported by Match!                ###
##############################################################################

data_1547817
_citation_journal_full    'Phys. Rev B'
_citation_journal_volume  '94'
_citation_page_first  '134108'
_citation_page_last   '134108'
_citation_year  '2016'
_citation_title  'Monazite-type SrCrO4 under compression'
loop_
_publ_author_name
  'Gleissner J.'
  'Errandonea D.'
_chemical_formula_sum  'Cr O4 Sr'
_chemical_name_common  'Strontium chromate(VI)'
_symmetry_space_group_name_H-M 'P 1 21/n 1'
_space_group_IT_number 14
_space_group_crystal_system 'monoclinic'
loop_
_symmetry_equiv_pos_as_xyz
   'x, y, z'
   '-x+0.5, y+0.5, -z+0.5'
   '-x, -y, -z'
   'x+0.5, -y+0.5, z+0.5'
_cell_length_a        6.68000
_cell_length_b        6.88100
_cell_length_c        6.11800
_cell_angle_alpha    90.0000
_cell_angle_beta     92.3300
_cell_angle_gamma    90.0000
_cell_formula_units_Z 4
loop_
_atom_site_label
_atom_site_fract_x
_atom_site_fract_y
_atom_site_fract_z
_atom_site_occupancy
_atom_site_B_iso_or_equiv
sr      0.356   0.874   0.227    1.00000    13.420
cr      0.323   0.631   0.762    1.00000    13.420
o      0.020   0.022   0.265    1.00000    13.420
o      0.161   0.614   0.974    1.00000    13.420
o      0.278   0.159   0.960    1.00000    13.420
o      0.420   0.846   0.821    1.00000    13.420
_cell_measurement_wavelength    1.541874
_cell_measurement_radiation   'x-rays'
_exptl_crystal_density_diffrn    4.813000
loop_
_pd_peak_d_spacing
_pd_peak_intensity
     4.790916        146.22
     4.602125          5.01
     4.570025          6.56
     4.419372         39.08
     3.825400         68.25
     3.718495          2.66
     3.440500          0.07
     3.337239        122.58
     3.058119          0.46
     3.056471        589.95
     3.002724        489.22
     2.998243       1000.00
     2.793302          1.15
     2.755585          6.33
     2.735011        242.05
     2.714810          1.21
     2.656943        184.33
     2.611535          8.75
     2.543315          4.18
     2.395458          8.47
     2.301063          0.00
     2.285012          1.93
     2.252771         30.08
     2.209686          3.51
     2.208541        115.69
     2.182275        179.98
     2.182254         21.43
     2.169158         38.32
     2.147475          4.96
     2.141976         34.61
     2.118527         12.20
     2.116923         27.22
     2.103868         98.21
     2.063871          5.78
     2.052836         18.86
     2.035810          0.64
     2.024737          0.00
     1.976864         11.81
     1.971362          1.07
     1.953783          4.57
     1.927096         20.39
     1.912700          1.41
     1.895121         13.16
     1.890259         31.02
     1.868239         22.62
     1.859247          0.07
     1.855695          2.11
     1.834555          0.30
     1.817744         29.91
     1.803958          0.00
     1.794267         20.85
     1.780086          6.55
     1.772669          0.83
     1.769852          0.58
     1.758021          1.72
     1.753232         33.80
     1.720250         32.47
     1.715491         16.95
     1.710472          0.00
     1.709597          1.17
     1.681316          0.01
     1.668619          6.85
     1.665812          0.10
     1.658135         12.89
     1.655931          0.17
     1.624476         14.77
     1.621621          2.33
     1.618824          8.62
     1.611358          0.07
     1.603084          0.62
     1.596972          0.56
     1.591345         11.86
     1.582985          6.77
     1.574929          0.19
     1.570365          0.21
     1.556263          0.21
     1.552282          5.14
     1.534206          0.84
     1.534042          3.50
     1.530200          5.00
     1.529060          4.59
     1.528235         10.18
     1.523342          0.87
     1.501362          0.07
     1.499121          9.18
     1.497284          0.02
     1.495041          1.47
     1.491884          0.07
     1.490284          3.14
     1.489906          0.04
     1.476897          0.00
     1.475455          0.00
     1.473124          0.03
     1.470544          5.01
     1.468957          0.03
     1.468416          1.13
     1.456515          2.26
     1.456484          0.00
     1.445831          4.20
     1.443809          0.30
     1.440483          0.21
     1.440163          1.27
     1.432680          0.04
     1.411366          0.11
     1.409620          2.24
     1.401984          2.37
     1.401079          0.02
     1.398761          0.00
     1.396651          0.02
     1.382583          1.64
     1.377793          0.30
     1.377340          0.27
     1.370152          3.52
     1.368572          0.78
     1.367506          0.12
     1.360892          0.13
     1.357405          1.00
     1.356973          0.22
     1.354211          0.02
     1.349333          0.50
     1.347847          0.40
     1.342597          0.01
     1.342281          1.18
     1.335435          0.46
     1.328472          0.05
     1.326829          1.13
     1.321420          0.16
     1.318510          0.03
     1.315356          0.31
     1.314459          0.01
     1.313966          0.00
     1.310464          0.39
     1.308592          0.74
     1.305768          0.06
     1.296148          0.01
     1.294005          0.19
     1.293249          0.22
     1.291963          0.42
     1.283322          0.67
     1.275133          0.00
     1.272268          1.21
     1.271793          0.12
     1.271657          0.02
     1.270996          0.01
     1.262484          0.17
     1.257160          0.56
     1.254877          0.00
     1.254865          0.00
     1.249668          0.28
     1.249445          0.64
     1.245107          1.20
     1.244504          0.23
     1.241743          0.85
     1.241615          0.01
     1.239498          0.06
     1.237013          0.26
     1.234096          0.03
     1.231896          0.00
     1.230382          0.63
     1.229537          0.00
     1.228626          0.01
     1.222224          0.64
     1.219671          0.42
     1.216950          0.10
     1.212218          0.00
     1.211340          0.12
     1.210553          0.00
     1.203736          0.05
     1.203191          0.77
     1.202030          0.34
     1.197729          0.74
     1.194008          0.09
     1.192995          0.37
     1.188121          0.52
     1.187387          0.04
     1.181906          0.02
     1.181085          0.73
     1.176428          0.03
     1.175262          0.21
     1.170387          0.05
     1.168961          0.00
     1.168190          0.20
     1.168167          0.41
     1.163582          0.02
     1.154076          0.01
     1.153728          0.04
     1.152015          0.71
     1.150531          0.15
     1.147077          0.17
     1.146833          0.03
     1.144994          0.08
     1.144926          0.29
     1.142589          0.00
     1.142506          0.54
     1.142449          0.04
     1.141043          0.08
     1.140457          0.04
     1.138026          0.02
     1.137660          0.07
     1.134778          0.01
     1.131863          0.00
     1.130270          0.01
     1.128435          0.07
     1.128010          0.00
     1.127169          0.61
     1.126521          0.00
     1.126386          0.37
     1.122774          0.09
     1.120582          0.01
     1.120478          0.00
     1.119942          0.03
     1.118921          0.01
     1.118133          0.09
     1.112802          0.01
     1.112413          0.14
     1.110066          0.00
     1.108377          0.24
     1.104843          0.03
     1.104271          0.17
     1.102058          0.00
     1.100886          0.00
     1.098155          0.03
     1.096372          0.03
     1.092143          0.12
     1.091138          0.00
     1.091127          0.02
     1.090871          0.14
     1.090341          0.13
     1.088482          0.02
     1.088375          0.00
     1.086775          0.15
     1.085271          0.01
     1.084579          0.00
     1.082715          0.01
     1.080453          0.00
     1.078891          0.03
     1.076905          0.00
     1.076315          0.20
     1.073738          0.01
     1.073382          0.05
     1.071744          0.09
     1.071137          0.09
     1.070988          0.12
     1.070336          0.01
     1.067073          0.00
     1.065482          0.06
     1.062490          0.01
     1.061692          0.03
     1.059264          0.03
     1.059098          0.01
     1.058461          0.00
     1.057741          0.04
     1.054616          0.00
     1.053543          0.00
     1.051934          0.00
     1.050625          0.02
     1.049792          0.09
     1.046931          0.01
     1.044901          0.05
     1.044615          0.00
     1.041501          0.03
     1.041407          0.02
     1.039394          0.00
     1.037530          0.05
     1.036226          0.16
     1.033716          0.04
     1.031936          0.07
     1.029121          0.00
     1.028402          0.00
     1.026418          0.00
     1.024394          0.00
     1.022659          0.00
     1.020523          0.00
     1.019643          0.00
     1.019443          0.02
     1.019373          0.02
     1.018824          0.03
     1.017905          0.00
     1.015964          0.05
     1.015022          0.04
     1.015005          0.03
     1.012368          0.00
     1.011049          0.03
     1.008541          0.00
     1.007836          0.01
     1.007371          0.00
     1.006961          0.00
     1.006770          0.00
##############################################################################
###                            Comments                                    ###
##############################################################################
###   Synthetic
###   Diffraction pattern calculated by Match!. 
###   I/Ic calculated by Match!. 
##############################################################################


