##############################################################################
###               Crystal structure data exported by Match!                ###
##############################################################################
###                           Data published by:                           ###
###                                                                        ###
###               COD (Crystallography Open Database)
##############################################################################
data_2310586
_citation_journal_full    'Acta Crystallographica (1,1948-23,1967)'
_citation_journal_volume  '16'
_citation_page_first  '124'
_citation_page_last   '128'
_citation_year  '1963'
_citation_title  'The crystal structure of pseudomalachite, Cu5 (P O4) (O H)4'
loop_
_publ_author_name
  'Ghose S.'
_chemical_formula_sum  'Cu5 H4 O12 P2'
_chemical_name_common  'Cu5 (P O4)2 (O H)4'
_symmetry_space_group_name_H-M 'P 1 21/c 1'
_space_group_IT_number 14
_space_group_crystal_system 'monoclinic'
loop_
_symmetry_equiv_pos_as_xyz
   'x, y, z'
   '-x, y+0.5, -z+0.5'
   '-x, -y, -z'
   'x, -y+0.5, z+0.5'
_cell_length_a        4.47000
_cell_length_b        5.75000
_cell_length_c       17.07999
_cell_angle_alpha    90.0000
_cell_angle_beta     91.1200
_cell_angle_gamma    90.0000
_cell_formula_units_Z 2
loop_
_atom_site_label
_atom_site_fract_x
_atom_site_fract_y
_atom_site_fract_z
_atom_site_occupancy
_atom_site_B_iso_or_equiv
cu      0.000   0.000   0.000    1.00000    1.000
o      0.182   0.318   -0.014    1.00000    1.000
o      0.335   -0.132   0.125    1.00000    1.000
cu      -0.014   0.329   0.257    1.00000    1.000
o      0.320   0.307   0.153    1.00000    1.000
o      0.710   0.155   0.064    1.00000    1.000
p      0.518   0.094   0.135    1.00000    1.000
o      0.152   0.069   0.317    1.00000    1.000
cu      0.048   0.472   0.085    1.00000    1.000
o      0.753   0.076   0.204    1.00000    1.000
_cell_measurement_wavelength    1.541874
_cell_measurement_radiation   'x-rays'
_exptl_crystal_density_diffrn    4.325000
loop_
_pd_peak_d_spacing
_pd_peak_intensity
     8.538364         18.75
     5.449374          0.17
     4.769347        144.83
     4.469146       1000.00
     4.269182         26.31
     4.045289          5.09
     3.991732          4.89
     3.928124          2.75
     3.528645          0.15
     3.466259        230.67
     3.445121         74.65
     3.427700         12.40
     3.279042         42.52
     3.243509          4.83
     3.117627        386.94
     3.057335        221.29
     3.020078         66.30
     2.978618        253.24
     2.936413        202.63
     2.875000         69.21
     2.846121         54.30
     2.835101         47.20
     2.740696         16.09
     2.724687        173.11
     2.699465         29.30
     2.566249         40.74
     2.550752         13.08
     2.473240        176.28
     2.435380        341.29
     2.422194        267.17
     2.417901         68.51
     2.397545          6.88
     2.390516        351.94
     2.384673         41.74
     2.379665         14.97
     2.332897        160.46
     2.319998        170.61
     2.245770        114.28
     2.234573        129.49
     2.233970          0.36
     2.232221         38.29
     2.217032         36.11
     2.199462         49.78
     2.198802         10.02
     2.172192          0.00
     2.151491          2.42
     2.134591         52.28
     2.113509          3.06
     2.094427         92.86
     2.082821          6.07
     2.072041          0.04
     2.062987          0.15
     2.032028          5.01
     2.022644          0.35
     2.021308         44.70
     2.015052         14.91
     2.001147          2.72
     1.995866         54.23
     1.992331         24.91
     1.983337         24.63
     1.967594          6.77
     1.964062          0.76
     1.963653         45.60
     1.944592         43.44
     1.940973          4.27
     1.911684         10.11
     1.904707          5.89
     1.885509          7.06
     1.870128         17.87
     1.860122         76.27
     1.858626          0.36
     1.852401          0.73
     1.839023          1.43
     1.833169          0.70
     1.816458         26.36
     1.814054          0.05
     1.801847         27.15
     1.792815         34.35
     1.774513         28.19
     1.764322         34.29
     1.764008         68.45
     1.761506          1.88
     1.757756         21.92
     1.753588          0.91
     1.752218         23.96
     1.750833          0.04
     1.748533          6.63
     1.741132         29.87
     1.733130        147.39
     1.727812          0.09
     1.726464         39.68
     1.722561         37.98
     1.722552          0.38
     1.713850          9.02
     1.708302         47.45
     1.707673          0.03
     1.695604         12.49
     1.692632         29.26
     1.686447         12.32
     1.682000         26.91
     1.679124         18.97
     1.677921          9.44
     1.671453         60.87
     1.666410          7.33
     1.660482          0.02
     1.639521          0.55
     1.637005         11.95
     1.632783          8.49
     1.623936          8.22
     1.621754         33.21
     1.608682         19.01
     1.605687          5.26
     1.598472        111.58
     1.591889          3.55
     1.589782          0.23
     1.584892          4.87
     1.583621          5.96
     1.577480         39.65
     1.570482         12.14
     1.569964         26.26
     1.560654         27.90
     1.558813          6.65
     1.557748         76.44
     1.546520         10.04
     1.528667         58.20
     1.527914          4.77
     1.510039          0.39
     1.507143         59.68
     1.504507          3.05
     1.503027          3.12
     1.500406          8.98
     1.498765         31.06
     1.492699          0.12
     1.489715         28.64
     1.489309          5.95
     1.485073         10.26
     1.477350          1.01
     1.472427          2.74
     1.468207         50.30
     1.462713          5.81
     1.454818          8.27
     1.451129          6.62
     1.448009          1.10
     1.442102          0.03
     1.440215          0.62
     1.439273          0.09
     1.437500          0.11
     1.437180         11.29
     1.434713          0.31
     1.433373         57.14
     1.432434         24.41
     1.431136          8.61
     1.429141          0.14
     1.426402          1.22
     1.426130          3.95
     1.423061         27.28
     1.422928         20.84
     1.419258         12.20
     1.417565          0.80
     1.417551         22.32
     1.415549         18.99
     1.415173         21.66
     1.413834          1.49
     1.412973          3.64
     1.405227         17.51
     1.404277          1.65
     1.401867         27.24
     1.398067          0.66
     1.393744         36.35
     1.391682         37.66
     1.390099          0.01
     1.387965         38.62
     1.382439          6.41
     1.381384          0.55
     1.374166          2.89
     1.371738          0.48
     1.370348          1.32
     1.369810          2.86
     1.368453         18.69
     1.366005         12.38
     1.364731          1.01
     1.363800          2.18
     1.363706         36.91
     1.363430          2.97
     1.362344          0.18
     1.358488          0.08
     1.353523          9.03
     1.352474         25.88
     1.349947         11.44
     1.349733          0.70
     1.348430          0.14
     1.348380         53.34
     1.344632          0.54
     1.344214          0.33
     1.337628         18.99
     1.332520          1.93
     1.332357         47.77
     1.332349         16.23
     1.330577          5.55
     1.328737         22.13
     1.326899          0.78
     1.324926          0.24
     1.322694          0.37
     1.320510         20.78
     1.319609         22.29
     1.316986         29.42
     1.312768         10.35
     1.312672          9.19
     1.310549         46.89
     1.309375         18.08
     1.308922          0.98
     1.305415          2.17
     1.303685          8.70
     1.302128          3.19
     1.302116          0.83
     1.300881          8.49
     1.300110          8.75
     1.296322          0.95
     1.295937          0.28
     1.293327          0.37
     1.288766          6.07
     1.286018          0.32
     1.283467          2.00
     1.283125          0.05
     1.282225          0.15
     1.280602          0.09
     1.276692          0.23
     1.275376          3.83
     1.275019          0.11
     1.272913          7.81
     1.269689          2.96
     1.267663          7.72
     1.257291          1.74
     1.256557         14.13
     1.255727          3.94
     1.251839          8.82
     1.242566          4.98
     1.240699          2.31
     1.238480          1.62
     1.237319          0.84
     1.236620          6.64
     1.236193          1.82
     1.233991          4.38
     1.232994          0.08
     1.232124         10.51
     1.231255          0.00
     1.230845          3.10
     1.230428          0.01
     1.226280          0.29
     1.224895          0.03
     1.221403          1.68
     1.220785          7.18
     1.219766          1.57
     1.217690         14.97
     1.211097          9.60
     1.210576         13.87
     1.209347          0.07
     1.208951          3.39
     1.207525          0.55
     1.206832          6.50
     1.206359          1.12
     1.205588          6.22
     1.205035          0.45
     1.198772         20.29
     1.196560          4.70
     1.195258          5.19
     1.195107          0.11
     1.194789         11.09
     1.193214          1.91
     1.192337          1.55
     1.191611          0.68
     1.190464          0.07
     1.189832         17.43
     1.185123         12.87
     1.185095          3.87
     1.184607          0.35
     1.182612          0.00
     1.180040          3.02
     1.176215          1.97
     1.174678          4.56
     1.174511         11.82
     1.172195          1.12
     1.171328          6.00
     1.170926          3.05
     1.169151          0.45
     1.167650          0.36
     1.166449          0.84
     1.165149          1.15
     1.162787          0.18
     1.161674          0.10
     1.160249          1.15
     1.159999          0.48
     1.159407          0.65
     1.158739          7.45
     1.158366          0.60
     1.156668          0.31
     1.155420          0.40
     1.155187          0.00
     1.154414          4.99
     1.149166          1.44
     1.148921          0.79
     1.148374          4.05
     1.147484          0.58
     1.147401          2.20
     1.147378          0.72
     1.145801         15.08
     1.143468          0.52
     1.142567          0.55
     1.139709          3.63
     1.138472          0.34
     1.137803          0.00
     1.135886          5.26
     1.133620          1.74
     1.133179          4.54
     1.129509          0.45
     1.127226          4.75
     1.122885          7.71
     1.120328          0.02
     1.117433          0.11
     1.117286         12.92
     1.116985          0.02
     1.116770          6.50
     1.116111          3.85
     1.115703          1.54
     1.114450          0.01
     1.113719          1.12
     1.113069          5.34
     1.112211          7.58
     1.111875          0.47
     1.111710          0.21
     1.111156          0.16
     1.111007          1.18
     1.110638          2.91
     1.110419          0.86
     1.108516          0.22
     1.106865         10.39
     1.106766          3.63
     1.105067          7.38
     1.105055          0.98
     1.103675          2.16
     1.102818          2.35
     1.102057          0.94
     1.100535          0.04
     1.099731         11.24
     1.099401          3.36
     1.096773          0.42
     1.095864          0.43
     1.094011          5.10
     1.094000          1.31
     1.093698         10.07
     1.093177          3.48
     1.093014          5.18
     1.091993          0.19
     1.091653          1.02
     1.090482          0.46
     1.089875          7.98
     1.088375          1.93
     1.087819          5.97
     1.086096          4.37
     1.085207          1.21
     1.084435          2.65
     1.083541          0.99
     1.081170          0.25
     1.080824          4.88
     1.079555          0.74
     1.078937          3.99
     1.078703          0.57
     1.078602          1.03
     1.076373          0.53
     1.076340          8.19
     1.075746          0.94
     1.073145          4.52
     1.071008          2.12
     1.068348          2.92
     1.067295          3.30
     1.067224          2.62
     1.066685          0.87
     1.066249          0.04
     1.065951         17.08
     1.064770          9.80
     1.061950          0.45
     1.061511          5.21
     1.061017          1.61
     1.060368          5.88
     1.058483          0.75
     1.057400          1.26
     1.057327          2.25
     1.056943          5.56
     1.056754          3.50
     1.054867          0.20
     1.054759          1.18
     1.054599          3.92
     1.053156          2.12
     1.050132          1.39
     1.049371          3.92
     1.049167          0.42
     1.047213          0.03
     1.047004          2.77
     1.046743          0.00
     1.045931          8.29
     1.044290          0.35
     1.042718          0.18
     1.041410          1.10
     1.040632          0.05
     1.040215          0.06
     1.039209          9.50
     1.038859          2.34
     1.038465          9.40
     1.038330          1.91
     1.037024         20.65
     1.036958          0.08
     1.036020         14.64
     1.035430          0.09
     1.034433          2.17
     1.034213          1.50
     1.033549          0.58
     1.033387          4.47
     1.033173          0.43
     1.031696          0.17
     1.031493          0.45
     1.030067          1.26
     1.029618          0.31
     1.029053          0.18
     1.028592          9.50
     1.027727          3.13
     1.025985          2.59
     1.025817          0.07
     1.025264          0.92
     1.024500          8.60
     1.023832          1.15
     1.023522          3.76
     1.023517          4.39
     1.022641          1.80
     1.022534          0.90
     1.021251          0.04
     1.021119          4.40
     1.020203          7.03
     1.020161          0.00
     1.019112          8.01
     1.017246          0.00
     1.016888          0.04
     1.016353          3.05
     1.016014          0.83
     1.015549          1.23
     1.015342          7.69
     1.015004          7.41
     1.014727         18.13
     1.014209          1.32
     1.012422          3.97
     1.011322          7.10
     1.011275          5.84
     1.010888          0.07
     1.010654         16.31
     1.008479          0.11
     1.007995          0.43
     1.007583          2.56
     1.007526          4.44
     1.006711          0.04
     1.006693          0.47
     1.006448          5.00
##############################################################################
###                            Comments                                    ###
##############################################################################
###   Diffraction pattern calculated by Match!. 
###   I/Ic calculated by Match!. 
##############################################################################


