##############################################################################
###               Crystal structure data exported by Match!                ###
##############################################################################
###                           Data published by:                           ###
###                                                                        ###
###               COD (Crystallography Open Database)
##############################################################################
data_9012082
_citation_journal_full    'Bulletin de la Societe Francaise de Mineralogie et de Cristallographie'
_citation_journal_volume  '96'
_citation_page_first  '218'
_citation_page_last   '219'
_citation_year  '1973'
_citation_title  'Affinement de la structure cristalline du cinabre a-HgS'
loop_
_publ_author_name
  'Auvray P.'
  'Genet F.'
_chemical_formula_sum  'Hg S'
_chemical_name_mineral  'Cinnabar'
_symmetry_space_group_name_H-M 'P 32 2 1'
_space_group_IT_number 154
_space_group_crystal_system 'trigonal (hexagonal axes)'
loop_
_symmetry_equiv_pos_as_xyz
   'x, y, z'
   '-y, x-y, z+0.66667'
   '-x+y, -x, z+0.33333'
   'x-y, -y, -z+0.33333'
   '-x, -x+y, -z+0.66667'
   'y, x, -z'
_cell_length_a        4.14500
_cell_length_b        4.14500
_cell_length_c        9.49600
_cell_angle_alpha    90.0000
_cell_angle_beta     90.0000
_cell_angle_gamma   120.0000
loop_
_atom_site_label
_atom_site_fract_x
_atom_site_fract_y
_atom_site_fract_z
_atom_site_occupancy
_atom_site_B_iso_or_equiv
hg      0.720   0.000   0.667    1.00000    1.000
s      0.489   0.000   0.167    1.00000    1.000
_cell_measurement_wavelength    1.541874
_cell_measurement_radiation   'x-rays'
_exptl_crystal_density_diffrn    8.201000
loop_
_pd_peak_d_spacing
_pd_peak_intensity
     3.589675         32.23
     3.357772       1000.00
     3.165333        239.95
     2.863418        918.57
     2.374152         64.02
     2.072500        253.43
     2.024836         93.08
     1.980141        300.37
     1.899433         29.75
     1.794838          3.49
     1.763612        167.39
     1.733902        263.82
     1.678886        138.09
     1.678725        126.29
     1.582667         54.06
     1.561305         44.00
     1.561262         15.17
     1.448161          4.45
     1.431709         77.06
     1.400202         24.77
     1.356770         42.41
     1.343130        119.56
     1.304552         71.30
     1.304477         55.37
     1.268980         44.95
     1.257844         85.47
     1.247040         49.07
     1.196558         18.16
     1.187171         18.89
     1.187076          1.65
     1.177964         49.26
     1.160281         24.84
     1.135039         11.58
     1.126984         39.84
     1.119257         38.15
     1.103994         60.00
     1.082227         29.26
     1.068508         19.32
     1.055111          7.14
     1.036250          7.93
     1.030135         17.43
     1.030073         34.14
     1.030023          3.63
     1.012418         17.11
     1.012383         11.96
     1.012289          3.54
##############################################################################
###                            Comments                                    ###
##############################################################################
###   Diffraction pattern calculated by Match!. 
###   I/Ic calculated by Match!. 
##############################################################################


