##############################################################################
###               Crystal structure data exported by Match!                ###
##############################################################################
###                           Data published by:                           ###
###                                                                        ###
###               COD (Crystallography Open Database)
##############################################################################
data_9012700
_citation_journal_full    'Journal of Solid State Chemistry'
_citation_journal_volume  '57'
_citation_page_first  '343'
_citation_page_last   '350'
_citation_year  '1985'
_citation_title  'Monoxyde quadratique PbO alpha(I): Description de la transition structuraleferroelastique Method: X-ray Diffraction'
loop_
_publ_author_name
  'Boher P.'
  'Garnier P.'
  'Gavarri J. R.'
  'Hewat A. W.'
_chemical_formula_sum  'O Pb'
_chemical_name_mineral  'Litharge'
_symmetry_space_group_name_H-M 'P 4/n m m'
_space_group_IT_number 129
_space_group_crystal_system 'tetragonal'
loop_
_symmetry_equiv_pos_as_xyz
   'x, y, z'
   '-x+0.5, -y+0.5, -z'
   '-y+0.5, x+0.5, z'
   '-x, -y, z'
   'y+0.5, -x+0.5, z'
   'y, -x, -z'
   '-y, x, -z'
   'x+0.5, -y+0.5, -z'
   '-x+0.5, y+0.5, -z'
   'y, x, -z'
   '-y, -x, -z'
   'x+0.5, y+0.5, -z'
   '-x, y, z'
   'x, -y, z'
   '-y+0.5, -x+0.5, z'
   'y+0.5, x+0.5, z'
_cell_length_a        3.97440
_cell_length_b        3.97440
_cell_length_c        5.02200
_cell_angle_alpha    90.0000
_cell_angle_beta     90.0000
_cell_angle_gamma    90.0000
loop_
_atom_site_label
_atom_site_fract_x
_atom_site_fract_y
_atom_site_fract_z
_atom_site_occupancy
_atom_site_B_iso_or_equiv
pb      0.000   0.500   0.235    1.00000    1.200
o      0.000   0.000   0.000    1.00000    0.799
_cell_measurement_wavelength    1.541874
_cell_measurement_radiation   'x-rays'
_cell_measurement_temperature    295.000000
_exptl_crystal_density_diffrn    9.344000
loop_
_pd_peak_d_spacing
_pd_peak_intensity
     5.022000         28.72
     3.116519       1000.00
     2.810325        318.44
     2.511000        111.83
     2.452441          0.07
     2.122817         11.47
     1.987200        154.60
     1.872460        244.35
     1.847797          5.77
     1.675559        294.86
     1.674000          1.61
     1.558260         95.72
     1.542739        101.37
     1.450739          6.03
     1.438189          9.75
     1.405163         43.44
     1.353191          1.59
     1.280978         53.41
     1.280281          2.55
     1.256816         44.41
     1.255500         12.21
     1.226220         39.05
     1.219215          0.11
     1.218614         82.39
     1.197186          5.59
     1.171720          1.34
     1.146309         27.42
     1.123894         72.22
     1.076670         58.12
     1.076256          1.45
     1.061408         27.29
     1.038840         24.55
     1.025469          6.90
     1.009328          1.72
##############################################################################
###                            Comments                                    ###
##############################################################################
###   Diffraction pattern calculated by Match!. 
###   I/Ic calculated by Match!. 
###   Space group has been derived from given symmetry operations. 
##############################################################################


