##############################################################################
###               Crystal structure data exported by Match!                ###
##############################################################################
###                           Data published by:                           ###
###                                                                        ###
###               COD (Crystallography Open Database)
##############################################################################
data_4124489
_citation_journal_full    'Journal of the American Chemical Society'
_citation_journal_volume  '125'
_citation_page_first  '1633'
_citation_page_last   '1642'
_citation_year  '2003'
_citation_title  'The synthesis, characterization and structure solution of SSZ-58: a noveltwo-dimensional 10-ring pore zeolite with previously unseen double 5-ringsubunit'
loop_
_publ_author_name
  'Burton A.'
  'Medrud R.C.'
  'Elomari S.'
  'Chen Congyan'
  'Chan I.Y.'
  'Vittoratos E.S.'
  'Bull L.M.'
_chemical_formula_sum  'O2 Si'
_chemical_name_common  'Silica'
_symmetry_space_group_name_H-M 'P m m a'
_space_group_IT_number 51
_space_group_crystal_system 'orthorhombic'
loop_
_symmetry_equiv_pos_as_xyz
   'x, y, z'
   '-x+0.5, -y, z'
   'x+0.5, -y, -z'
   '-x, y, -z'
   '-x, -y, -z'
   'x+0.5, y, -z'
   '-x+0.5, y, z'
   'x, -y, z'
_cell_length_a       25.11060
_cell_length_b       12.49720
_cell_length_c       12.85960
_cell_angle_alpha    90.0000
_cell_angle_beta     90.0000
_cell_angle_gamma    90.0000
_cell_formula_units_Z 74
loop_
_atom_site_label
_atom_site_fract_x
_atom_site_fract_y
_atom_site_fract_z
_atom_site_occupancy
_atom_site_B_iso_or_equiv
o      0.101   0.311   0.711    1.00000    1.000
o      0.074   0.192   0.864    1.00000    1.000
o      0.000   0.144   0.500    1.00000    1.000
o      0.250   0.500   0.857    1.00000    1.000
o      0.198   0.000   0.771    1.00000    1.000
o      0.250   0.316   0.937    1.00000    1.000
o      0.022   0.176   0.694    1.00000    1.000
o      0.178   0.500   0.429    1.00000    1.000
o      0.197   0.347   0.765    1.00000    1.000
si      0.020   0.125   0.385    1.00000    1.000
si      0.250   0.203   0.989    1.00000    1.000
o      0.168   0.000   0.120    1.00000    1.000
o      0.059   0.000   0.927    1.00000    1.000
o      0.181   0.000   0.573    1.00000    1.000
si      0.079   0.194   0.742    1.00000    1.000
o      0.020   0.000   0.361    1.00000    1.000
si      0.189   0.377   0.455    1.00000    1.000
o      0.073   0.185   0.374    1.00000    1.000
si      0.135   0.190   0.345    1.00000    1.000
o      0.250   0.104   0.911    1.00000    1.000
o      0.099   0.143   0.053    1.00000    1.000
o      0.199   0.185   0.056    1.00000    1.000
si      0.190   0.000   0.454    1.00000    1.000
o      0.148   0.175   0.227    1.00000    1.000
si      0.250   0.000   0.840    1.00000    1.000
si      0.057   0.126   0.963    1.00000    1.000
o      0.250   0.349   0.437    1.00000    1.000
o      0.154   0.310   0.377    1.00000    1.000
o      0.162   0.106   0.415    1.00000    1.000
si      0.153   0.123   0.115    1.00000    1.000
o      0.118   0.105   0.705    1.00000    1.000
si      0.153   0.376   0.683    1.00000    1.000
o      0.137   0.500   0.683    1.00000    1.000
si      0.250   0.375   0.827    1.00000    1.000
o      0.000   0.167   0.000    1.00000    1.000
si      0.152   0.000   0.685    1.00000    1.000
o      0.250   0.000   0.422    1.00000    1.000
o      0.176   0.346   0.572    1.00000    1.000
_cell_measurement_wavelength    1.541874
_cell_measurement_radiation   'x-rays'
_exptl_crystal_density_diffrn    1.829000
loop_
_pd_peak_d_spacing
_pd_peak_intensity
    12.859600        119.69
    12.555300        189.65
    12.497200       1000.00
    11.445958        147.51
     8.983592          3.03
     8.962236        120.62
     8.857325        242.65
     8.440735        101.97
     7.294475         37.24
     7.015083          4.51
     6.429800          0.49
     6.277650         31.03
     6.248600         26.15
     6.228841         32.92
     6.117224          0.13
     5.722979         13.03
     5.717446         14.60
     5.641345         28.85
     5.620236         14.03
     5.609675          0.04
     5.594085         31.02
     5.574766          4.37
     5.484540         25.38
     5.203332          3.21
     5.141750         27.19
     5.129737         28.05
     5.099008          4.96
     4.721154         26.22
     4.678034         52.31
     4.665975          6.66
     4.491796         86.50
     4.481118          6.27
     4.428662          4.87
     4.411425          3.86
     4.381149         31.13
     4.286533         49.46
     4.227049          5.67
     4.225410        134.04
     4.220367         15.32
     4.187308          9.39
     4.185100         23.11
     4.165733         13.63
     4.056624         53.82
     4.054652         14.91
     4.002805          4.31
     3.979651        151.54
     3.968486          1.12
     3.962988         58.12
     3.957900        115.70
     3.953787        144.47
     3.950589         20.97
     3.914537         86.51
     3.858438         12.90
     3.815319         11.96
     3.792025          2.70
     3.779196         41.79
     3.773194         27.65
     3.744847         39.84
     3.649053          4.16
     3.647237         15.30
     3.581807          2.37
     3.539992         16.70
     3.534758         18.73
     3.507541          0.77
     3.500249          0.31
     3.496117          0.99
     3.477232         19.26
     3.471034          2.66
     3.462716          0.24
     3.455309         14.39
     3.405984         14.74
     3.402485          9.84
     3.377051          1.11
     3.367980          0.02
     3.356683          1.15
     3.351106          2.58
     3.343600         20.33
     3.330359          2.44
     3.260391         15.74
     3.256301         14.20
     3.226016         28.87
     3.214900          1.79
     3.188871         17.10
     3.154795          4.04
     3.138825          0.11
     3.132670          0.55
     3.124300         35.49
     3.114420          0.01
     3.113528          3.82
     3.111036         41.79
     3.089866          0.68
     3.080058          1.80
     3.058612          0.08
     3.054392          5.70
     3.049305          0.72
     3.044273          0.06
     3.038657          0.89
     3.035982          0.00
     3.031840          1.01
     3.023793          0.48
     3.021993          0.00
     3.014033          0.00
     3.001142          5.95
     2.994531          0.58
     2.987412         19.47
     2.966492          0.37
     2.962396         14.98
     2.952442          7.03
     2.950935          0.33
     2.918176          0.75
     2.912097          3.90
     2.906274          0.59
     2.890565          8.25
     2.877574          1.23
     2.869319          2.25
     2.861490          1.99
     2.858723          3.06
     2.854041          1.25
     2.840376          7.40
     2.820673          9.46
     2.813578         14.17
     2.810118          4.24
     2.804838          1.01
     2.800443          0.91
     2.797043          0.21
     2.792685          0.75
     2.789305          0.02
     2.787383          0.12
     2.751460          0.13
     2.751008          5.26
     2.742270          4.76
     2.740410          0.94
     2.733139          3.90
     2.726629          5.00
     2.707636          0.04
     2.705292          0.85
     2.700447          1.06
     2.697541         12.87
     2.686683          0.22
     2.683099          0.05
     2.663991          1.91
     2.663961         10.00
     2.659501          0.83
     2.646240          8.98
     2.601666          5.84
     2.598136          0.21
     2.571920          0.31
     2.570875          8.62
     2.567499          0.59
     2.564869          0.42
     2.559486          1.33
     2.558535          0.21
     2.549504          6.30
     2.545106          0.01
     2.532469          8.78
     2.532133          4.67
     2.524822          0.75
     2.519599          0.39
     2.519126          0.03
     2.517798          2.47
     2.512155          4.70
     2.511060          6.10
     2.507439          1.34
     2.506858          4.37
     2.506544          3.43
     2.503719          2.07
     2.503605          4.42
     2.499440          9.19
     2.499068         14.56
     2.498051          5.11
     2.494373          0.82
     2.484420          9.94
     2.482020          0.12
     2.475268          6.86
     2.469901          1.49
     2.464514          4.91
     2.461856          0.70
     2.460542         11.31
     2.458478         12.36
     2.457465          6.02
     2.453526          0.63
     2.452317          7.96
     2.451338          2.27
     2.441897          0.81
     2.435027          0.10
     2.431492          2.90
     2.417946          3.08
     2.417244          0.73
     2.412245          2.20
     2.407979          0.23
     2.394126          2.71
     2.379929         12.78
     2.378337          0.48
     2.368494          1.36
     2.367740          7.70
     2.360577          0.65
     2.358635          1.67
     2.354459          0.03
     2.351367          0.16
     2.347036          0.59
     2.342463          0.10
     2.339017          0.45
     2.338361          1.90
     2.337913          1.09
     2.336780          1.43
     2.335620          0.85
     2.332988          0.01
     2.329964          0.21
     2.329617          2.58
     2.322151          0.26
     2.319655          0.25
     2.317425          0.46
     2.299095          0.54
     2.298472          1.05
     2.295606          0.03
     2.292636          2.49
     2.290521          4.06
     2.289192          1.47
     2.287774          0.06
     2.285192          1.45
     2.281383          3.08
     2.270223          4.26
     2.255791          1.76
     2.251727          1.37
     2.247643          0.47
     2.245898          3.05
     2.244312          3.40
     2.240559          0.00
     2.235646          2.54
     2.231693          1.13
     2.224072          0.92
     2.214331          0.44
     2.212167          0.81
     2.212150          0.27
     2.210486          0.01
     2.205712          0.20
     2.204509          0.80
     2.191221          0.04
     2.190574          0.94
     2.190036          2.28
     2.188427          0.03
     2.184078          0.93
     2.182216          0.20
     2.180752          0.46
     2.180163          0.28
     2.174567          0.53
     2.166669          2.06
     2.164358          0.25
     2.163968          0.01
     2.161874          0.32
     2.159191          0.00
     2.158296          0.02
     2.155922          1.19
     2.151253          0.64
     2.151226          1.04
     2.150565          0.10
     2.149486          0.47
     2.145876          0.13
     2.143267          0.50
     2.135502          0.41
     2.134822          0.54
     2.127953          0.01
     2.121109          0.05
     2.120046          0.09
     2.117257          0.76
     2.116610          0.03
     2.114979          1.00
     2.113525          1.04
     2.113318          0.67
     2.112705          0.92
     2.112426          0.92
     2.110184          0.01
     2.107183          2.58
     2.104991          0.07
     2.093654          1.50
     2.092550         10.25
     2.090748          1.92
     2.090205          0.18
     2.083147          0.46
     2.082867         27.92
     2.077853          1.24
     2.076280         12.13
     2.075735          2.41
     2.067767          0.49
     2.066462          0.25
     2.065384          0.00
     2.064686          0.18
     2.063819          0.31
     2.061568          1.43
     2.056072          0.63
     2.054783          0.55
     2.054320          0.04
     2.049214          0.50
     2.048205          0.01
     2.047098          0.02
     2.046161          0.04
     2.041793          0.29
     2.039510          0.44
     2.039075          0.15
     2.037743          0.21
     2.035509          0.00
     2.034058          4.44
     2.029044          0.24
     2.028312          0.15
     2.027326          0.01
     2.025148          5.02
     2.020751          4.07
     2.014876          2.99
     2.006225          1.59
     2.002114          0.78
     2.001402          0.00
     1.996713          0.01
     1.996706          0.38
     1.989826          0.58
     1.989378          0.72
     1.989189          0.89
     1.985665          0.00
     1.984243          0.45
     1.983628          7.94
     1.982243          1.41
     1.981494          0.26
     1.979926          0.00
     1.979486          0.18
     1.978950          9.43
     1.978081          0.21
     1.976891          1.23
     1.975353          0.21
     1.975294          0.81
     1.973247          1.49
     1.971260          0.36
     1.970355          3.34
     1.967340          0.59
     1.967183          1.05
     1.965073          0.16
     1.964642          0.01
     1.961288          1.99
     1.961035          0.13
     1.957268          0.13
     1.957252          0.43
     1.955261          2.88
     1.954596          0.14
     1.953940          0.20
     1.953770          7.85
     1.949319          2.12
     1.947185          1.19
     1.939295          0.00
     1.934969          1.27
     1.933044          1.33
     1.932043          0.17
     1.929219          0.29
     1.928200          0.04
     1.922213          1.72
     1.920599          0.08
     1.918863          2.39
     1.917647          0.00
     1.911405          1.39
     1.910157          0.36
     1.907660          0.00
     1.905815          0.19
     1.902783          1.60
     1.900350          3.93
     1.900338          1.75
     1.896013          0.03
     1.895626          0.27
     1.893214          1.50
     1.891046          0.30
     1.889598          1.65
     1.888227          0.44
     1.886597          0.00
     1.885815          0.06
     1.884231          0.05
     1.882442          0.72
     1.880448          0.80
     1.880311          0.71
     1.879930          0.36
     1.873412          1.15
     1.872423          0.10
     1.872087          0.80
     1.870679          0.00
     1.869892          0.03
     1.869762          1.04
     1.868218          2.84
     1.864695          0.63
     1.861286          1.50
     1.859516          0.51
     1.858255          0.03
     1.852899          1.82
     1.850432          0.94
     1.849930          0.00
     1.849913          0.17
     1.846568          0.63
     1.845395          1.92
     1.843212          2.30
     1.842462          0.00
     1.840980          0.67
     1.839885          1.46
     1.837086          0.63
     1.836569          0.91
     1.832189          1.08
     1.829973          0.23
     1.828180          0.00
     1.826711          4.91
     1.824552          0.05
     1.824527          0.46
     1.823630          1.55
     1.823619          1.09
     1.820264          0.23
     1.817731          1.01
     1.817553          0.31
     1.813846          0.01
     1.812810          0.28
     1.809976          0.32
     1.800677          0.31
     1.798802          0.26
     1.796718          0.01
     1.795506          0.00
     1.795177          0.65
     1.794375          1.00
     1.793981          0.04
     1.793614          0.03
     1.792447          0.07
     1.790904          0.00
     1.788223          0.85
     1.787898          2.46
     1.787503          1.72
     1.785314          0.07
     1.784808          3.23
     1.783835          0.30
     1.783830          0.01
     1.781830          1.98
     1.780433          0.05
     1.778933          2.31
     1.778433          0.08
     1.776418          0.15
     1.776160          0.33
     1.775422          1.05
     1.774455          2.01
     1.773811          2.59
     1.771834          0.47
     1.771465          0.05
     1.769996          8.33
     1.768354          0.89
     1.767534          3.37
     1.767379          0.20
     1.764965          1.07
     1.763985          1.38
     1.763141          0.01
     1.763018          0.37
     1.762493          0.49
     1.761047          2.07
     1.758739          0.00
     1.758167          0.44
     1.755263          0.62
     1.754893          0.28
     1.753771          0.82
     1.752709          2.15
     1.752506          0.09
     1.751071          0.00
     1.750124          0.52
     1.748058          0.03
     1.746982          0.52
     1.745851          0.14
     1.745380          3.13
     1.743838          0.09
     1.743818          2.04
     1.738616          0.39
     1.737270          0.45
     1.736753          0.14
     1.736320          0.16
     1.735517          0.32
     1.734474          1.16
     1.734444          0.10
     1.731358          0.01
     1.730163          0.23
     1.729250          0.11
     1.728935          2.90
     1.727655          3.44
     1.726753          3.02
     1.725280          0.22
     1.724673          0.86
     1.723997          1.83
     1.723566          0.16
     1.722940          0.33
     1.721929          1.66
     1.720233          1.29
     1.719924          0.01
     1.717221          0.10
     1.716211          0.87
     1.713917          1.20
     1.711379          0.03
     1.711141          0.11
     1.709912          0.27
     1.709070          0.04
     1.708710          0.82
     1.707834          7.20
     1.707578          4.23
     1.707283          0.18
##############################################################################
###                            Comments                                    ###
##############################################################################
###   Diffraction pattern calculated by Match!. 
###   I/Ic calculated by Match!. 
###   Space group has been derived from given symmetry operations. 
##############################################################################


