##############################################################################
###               Crystal structure data exported by Match!                ###
##############################################################################
###                           Data published by:                           ###
###                                                                        ###
###               COD (Crystallography Open Database)
##############################################################################
data_9015282
_citation_journal_full    'American Mineralogist'
_citation_journal_volume  '95'
_citation_page_first  '1590'
_citation_page_last   '1593'
_citation_year  '2010'
_citation_title  'Ordering of iron vacancies in monoclinic jarositesNote: T = 95 C'
loop_
_publ_author_name
  'Scarlett N. V. Y.'
  'Grey I. E.'
  'Brand H. E. A.'
_chemical_formula_sum  'Fe2.856 H6.73 Na0.75 O14 S2'
_chemical_name_mineral  'Jarosite'
_symmetry_space_group_name_H-M 'C 1 2/m 1'
_space_group_IT_number 12
_space_group_crystal_system 'monoclinic'
loop_
_symmetry_equiv_pos_as_xyz
   'x, y, z'
   'x+0.5, y+0.5, z'
   '-x, y, -z'
   '-x+0.5, y+0.5, -z'
   '-x, -y, -z'
   '-x+0.5, -y+0.5, -z'
   'x, -y, z'
   'x+0.5, -y+0.5, z'
_cell_length_a       12.74852
_cell_length_b        7.34697
_cell_length_c        6.98243
_cell_angle_alpha    90.0000
_cell_angle_beta    127.1974
_cell_angle_gamma    90.0000
loop_
_atom_site_label
_atom_site_fract_x
_atom_site_fract_y
_atom_site_fract_z
_atom_site_occupancy
_atom_site_B_iso_or_equiv
na      0.000   0.000   0.000    0.75000    1.080
o      0.000   0.000   0.000    0.25000    1.080
fe      0.000   0.000   0.500    0.85600    1.080
fe      0.750   0.250   0.500    1.00000    1.080
s      0.307   0.000   0.933    1.00000    1.080
o      0.409   0.000   0.198    1.00000    1.129
o      0.168   0.000   0.829    1.00000    1.129
o      0.342   0.166   0.846    1.00000    1.129
o      0.260   0.000   0.400    0.92000    1.129
o      0.260   0.000   0.400    0.08000    1.129
o      0.074   0.202   0.394    0.92000    1.129
o      0.074   0.202   0.394    0.08000    1.129
_cell_measurement_wavelength    1.541874
_cell_measurement_radiation   'x-rays'
_exptl_crystal_density_diffrn    3.007000
loop_
_pd_peak_d_spacing
_pd_peak_intensity
     5.952457        104.62
     5.944451        201.85
     5.561906        398.02
     5.077463        516.57
     5.054531        813.89
     3.678468        102.35
     3.673485         20.60
     3.493066         44.59
     3.482355         69.67
     3.133422        428.50
     3.124944       1000.00
     3.074364        395.32
     3.065259        567.30
     3.061978        527.51
     2.976229        113.71
     2.972226         63.55
     2.962649          5.47
     2.952539         36.49
     2.780953        252.94
     2.538732         88.69
     2.527265        207.95
     2.383964          6.18
     2.382420          2.90
     2.380737          6.20
     2.317179         10.85
     2.310623          2.13
     2.310324          4.43
     2.306115         18.13
     2.299023         14.79
     2.234153        281.19
     2.228964        174.86
     2.223045          0.92
     2.217254          9.03
     2.213681          1.11
     2.124726          5.59
     2.121845          2.43
     2.088509          0.13
     2.084393          0.49
     2.081643          7.17
     1.988190        138.64
     1.985268         11.63
     1.984152          7.11
     1.981484          6.80
     1.980811        333.21
     1.980549          7.15
     1.957565          3.02
     1.950238          3.90
     1.948829          6.22
     1.913504         53.81
     1.905605        125.71
     1.853969         75.96
     1.839234        336.55
     1.836743        192.17
     1.758764          1.30
     1.755761          0.41
     1.754881          0.89
     1.748521         41.12
     1.746533         45.43
     1.744101         42.77
     1.743954         18.98
     1.741177         29.61
     1.729152         24.30
     1.727581         22.65
     1.727206         27.62
     1.697070         22.19
     1.693817         11.04
     1.692488          1.74
     1.690265          5.23
     1.688961          1.57
     1.684844          0.58
     1.684232          0.39
     1.658506         10.49
     1.655124         12.21
     1.652667          9.59
     1.630472         15.78
     1.624612         37.39
     1.624390         21.06
     1.615045          1.48
     1.612183          0.18
     1.585566         34.02
     1.584574         41.47
     1.580505         35.97
     1.574963         27.16
     1.573385         45.64
     1.566711         41.14
     1.563331         13.45
     1.562472         54.34
     1.561076         19.36
     1.558910         21.13
     1.537182         80.33
     1.532630         80.81
     1.530989         84.32
     1.488114         64.68
     1.486113         21.83
     1.481325         99.55
     1.477361          0.00
     1.476269        190.29
     1.474725          0.06
     1.456338          3.84
     1.455751         15.53
     1.454249          7.06
     1.441118         25.00
     1.440849         17.98
     1.438485         15.91
     1.437744         16.51
     1.435008         29.84
     1.423224         16.34
     1.417486         18.80
     1.416728          6.03
     1.400456         21.53
     1.397870          0.81
     1.394369         25.90
     1.393442          1.77
     1.390870          3.72
     1.390476          2.74
     1.389522          1.48
     1.388715          4.79
     1.380961          2.19
     1.378055          6.14
     1.377648         13.46
     1.373831          0.69
     1.371550          0.85
     1.370668         42.51
     1.368562          0.29
     1.366978         23.81
     1.350902          9.55
     1.350206          4.56
     1.349141         30.97
     1.348227          2.79
     1.347877         20.36
     1.347742         27.50
     1.347039         22.27
     1.346828         15.53
     1.345262          1.59
     1.341359          0.53
     1.337097          1.59
     1.336668          0.89
     1.325079         23.61
     1.321681         17.03
     1.308587         21.32
     1.304821         14.90
     1.302859         11.88
     1.302546          0.23
     1.300434          0.41
     1.298771          0.94
     1.286353          0.47
     1.282454          0.17
     1.281150          0.15
     1.271621          0.45
     1.269366          2.62
     1.269174          0.11
     1.263633          3.31
     1.259255          0.01
     1.259013          1.36
     1.258812         10.79
     1.257029          5.28
     1.248151         37.14
     1.246445          0.08
     1.245176         28.34
     1.244647          3.97
     1.243636         23.18
     1.243243          0.83
     1.241598          0.61
     1.241492          0.01
     1.241353          0.74
     1.226156         22.24
     1.224495          8.01
     1.220903          0.53
     1.216801          0.41
     1.216378          5.78
     1.211644          2.70
     1.210790          6.70
     1.201661         17.51
     1.200223         20.56
     1.199758          3.00
     1.199315         18.02
     1.198510          8.34
     1.196301         12.73
     1.195857         16.60
     1.195604          0.47
     1.194565          0.60
     1.192690          1.44
     1.191982          7.58
     1.191210          7.07
     1.190491          0.02
     1.190369          5.36
     1.189325          3.84
     1.188890          0.30
     1.172608          1.07
     1.170944          0.89
     1.166188          1.53
     1.164355          4.60
     1.161657          1.58
     1.160785          1.78
     1.158589         19.96
     1.155312         17.32
     1.155162         18.71
     1.153058         34.72
     1.152745          0.03
     1.151186          0.00
     1.149511         10.50
     1.148363          0.25
     1.141711          0.25
     1.141155          0.22
     1.140503          0.01
     1.134924          5.29
     1.134397         17.61
     1.133657         27.85
     1.132800         12.86
     1.132505          5.74
     1.132178          4.38
     1.131647         21.44
     1.131126         27.21
     1.130495         15.65
     1.126537          2.42
     1.123763          0.03
     1.121796          1.79
     1.120669          0.76
     1.120129          0.35
     1.117076          6.25
     1.115250          0.75
     1.114482          3.45
     1.113665          5.15
     1.112381          0.95
     1.112363          4.72
     1.111522         10.07
     1.110597          1.09
     1.110128          1.54
     1.109934          4.47
     1.108627         11.10
     1.106841         11.95
     1.103786          1.05
     1.102908          2.52
     1.102560          2.70
     1.101580          0.92
     1.101492         11.19
     1.098963          0.28
     1.097054          0.00
     1.096607         26.33
     1.087891          7.16
     1.085295          4.99
     1.084511          3.00
     1.080772          5.57
     1.080759          4.10
     1.077030          0.12
     1.073214          2.07
     1.072804          3.48
     1.070265          6.32
     1.067494          7.39
     1.066481         11.04
     1.066058          0.33
     1.064640          1.93
     1.063469          1.06
     1.062363          8.51
     1.060923         19.64
     1.055082          0.17
     1.051505          0.44
     1.050301          0.18
     1.045509          0.03
     1.045204          0.25
     1.044474          4.72
     1.044254          4.38
     1.044006          0.08
     1.042619          0.70
     1.042525          0.48
     1.042197          4.40
     1.041648          8.04
     1.041045          7.77
     1.040822         11.22
     1.039990          2.43
     1.038604          3.31
     1.037849          2.22
     1.037353         11.41
     1.036578         11.06
     1.032347          2.45
     1.031393          3.23
     1.029936          0.63
     1.029554          0.00
     1.028344          0.06
     1.024788          0.01
     1.021753          0.31
     1.020659          0.74
     1.020543          0.22
     1.019798          0.26
     1.018948          0.23
     1.016769          0.09
     1.015493          0.21
     1.014917          0.50
     1.014714          0.08
     1.010906          0.42
##############################################################################
###                            Comments                                    ###
##############################################################################
###   Synthetic
###   Diffraction pattern calculated by Match!. 
###   I/Ic calculated by Match!. 
###   Space group has been derived from given symmetry operations. 
##############################################################################


