##############################################################################
###               Crystal structure data exported by Match!                ###
##############################################################################
###                           Data published by:                           ###
###                                                                        ###
###               COD (Crystallography Open Database)
##############################################################################
data_1010941
_citation_journal_full    'Zeitschrift fuer Kristallographie, Kristallgeometrie, Kristallphysik,Kristallchemie (-144,1977)'
_citation_journal_volume  '57'
_citation_page_first  '253'
_citation_page_last   '299'
_citation_year  '1922'
_citation_title  'Die Kristallstruktur einiger Oxyde I.'
loop_
_publ_author_name
  'Niggli P'
_chemical_formula_sum  'Cu2 O'
_chemical_name_mineral  'Cuprite'
_chemical_name_common  'Copper(I) oxide'
_symmetry_space_group_name_H-M 'P n -3 m'
_space_group_IT_number 224
_space_group_crystal_system 'cubic'
loop_
_symmetry_equiv_pos_as_xyz
   'x, y, z'
   '-x+0.5, -y+0.5, -z+0.5'
   '-y+0.5, x+0.5, z+0.5'
   '-x, -y, z'
   'y+0.5, -x+0.5, z+0.5'
   'x+0.5, -z+0.5, y+0.5'
   'x, -y, -z'
   'x+0.5, z+0.5, -y+0.5'
   'z+0.5, y+0.5, -x+0.5'
   '-x, y, -z'
   '-z+0.5, y+0.5, x+0.5'
   'y, -x, -z'
   '-y, x, -z'
   '-x, z, -y'
   '-x, -z, y'
   '-z, -y, x'
   'z, -y, -x'
   'z, x, y'
   'y, z, x'
   '-y, -z, x'
   'z, -x, -y'
   '-y, z, -x'
   '-z, -x, y'
   '-z, x, -y'
   'y, -z, -x'
   '-z+0.5, -x+0.5, -y+0.5'
   '-y+0.5, -z+0.5, -x+0.5'
   'y+0.5, z+0.5, -x+0.5'
   '-z+0.5, x+0.5, y+0.5'
   'y+0.5, -z+0.5, x+0.5'
   'z+0.5, x+0.5, -y+0.5'
   'z+0.5, -x+0.5, y+0.5'
   '-y+0.5, z+0.5, x+0.5'
   'y+0.5, x+0.5, -z+0.5'
   '-y+0.5, -x+0.5, -z+0.5'
   '-x+0.5, z+0.5, y+0.5'
   '-x+0.5, -z+0.5, -y+0.5'
   'z+0.5, -y+0.5, x+0.5'
   '-z+0.5, -y+0.5, -x+0.5'
   'x+0.5, y+0.5, -z+0.5'
   '-x+0.5, y+0.5, z+0.5'
   'x+0.5, -y+0.5, z+0.5'
   '-y, -x, z'
   'y, x, z'
   'x, -z, -y'
   'x, z, y'
   '-z, y, -x'
   'z, y, x'
_cell_length_a        4.26000
_cell_length_b        4.26000
_cell_length_c        4.26000
_cell_angle_alpha    90.0000
_cell_angle_beta     90.0000
_cell_angle_gamma    90.0000
_cell_formula_units_Z 2
loop_
_atom_site_label
_atom_site_fract_x
_atom_site_fract_y
_atom_site_fract_z
_atom_site_occupancy
_atom_site_B_iso_or_equiv
cu      0.250   0.250   0.250    1.00000    1.000
o      0.000   0.000   0.000    1.00000    1.000
_cell_measurement_wavelength    1.541874
_cell_measurement_radiation   'x-rays'
_exptl_crystal_density_diffrn    6.147000
loop_
_pd_peak_d_spacing
_pd_peak_intensity
     3.012275         42.53
     2.459512       1000.00
     2.130000        371.68
     1.739138         10.06
     1.506138        312.69
     1.347130          2.85
     1.284438        264.31
     1.229756         60.62
     1.138533          2.50
     1.065000         37.26
##############################################################################
###                            Comments                                    ###
##############################################################################
###   Diffraction pattern calculated by Match!. 
###   I/Ic calculated by Match!. 
###   Space group has been derived from given symmetry operations. 
##############################################################################


