##############################################################################
###               Crystal structure data exported by Match!                ###
##############################################################################
###                           Data published by:                           ###
###                                                                        ###
###               COD (Crystallography Open Database)
##############################################################################
data_9006306
_citation_journal_full    'Physics and Chemistry of Minerals'
_citation_journal_volume  '21'
_citation_page_first  '269'
_citation_page_last   '284'
_citation_year  '1994'
_citation_title  'Framework silica structures generated using simulated annealingwith a potential energy function based on an H6Si2O7 moleculeSample: 23'
loop_
_publ_author_name
  'Boisen M. B.'
  'Gibbs G. V.'
  'Bukowinski M. S. T.'
_chemical_formula_sum  'O2 Si'
_chemical_name_common  'Silica'
_symmetry_space_group_name_H-M 'P 1 2 1'
_space_group_IT_number 3
_space_group_crystal_system 'monoclinic'
loop_
_symmetry_equiv_pos_as_xyz
   'x, y, z'
   '-x, y, -z'
_cell_length_a        4.16050
_cell_length_b        4.12940
_cell_length_c        7.42110
_cell_angle_alpha    90.0000
_cell_angle_beta    101.3752
_cell_angle_gamma    90.0000
loop_
_atom_site_label
_atom_site_fract_x
_atom_site_fract_y
_atom_site_fract_z
_atom_site_occupancy
_atom_site_B_iso_or_equiv
si      0.182   0.000   0.697    1.00000    1.000
si      0.381   0.586   0.178    1.00000    1.000
o      0.024   0.752   0.189    1.00000    1.000
o      0.500   0.739   0.000    1.00000    1.000
o      0.386   0.715   0.641    1.00000    1.000
o      0.000   0.159   0.500    1.00000    1.000
o      0.490   0.202   0.188    1.00000    1.000
_cell_measurement_wavelength    1.541874
_cell_measurement_radiation   'x-rays'
_exptl_crystal_density_diffrn    3.193000
loop_
_pd_peak_d_spacing
_pd_peak_intensity
     7.275325         58.65
     4.129400        671.14
     4.078774        264.67
     3.901111        565.89
     3.637662       1000.00
     3.591247        431.59
     3.291628         27.65
     3.027609        591.34
     2.901862        442.82
     2.835774        714.52
     2.729599         57.46
     2.573942        351.43
     2.482479        180.26
     2.441653         52.93
     2.425108         42.24
     2.292562          4.59
     2.127608        344.37
     2.091158        200.46
     2.072820         13.16
     2.064700        165.21
     2.039387         62.28
     2.004379        173.55
     1.986262         12.70
     1.950555         12.61
     1.924418          0.13
     1.870170        112.12
     1.852527         26.13
     1.842128         78.74
     1.828545         16.46
     1.824872         26.78
     1.818831          0.11
     1.798315         44.03
     1.795623         47.38
     1.763695        237.03
     1.749085         64.61
     1.744301         66.14
     1.738900         13.15
     1.705801        130.38
     1.703600          6.85
     1.664522         34.46
     1.648754         16.49
     1.645814         24.31
     1.602603         38.93
     1.587414          9.98
     1.572101         67.52
     1.551244        110.40
     1.534215        147.15
     1.528858         34.46
     1.513804          6.60
     1.464956         40.50
     1.462826        107.47
     1.455065          8.96
     1.452160         10.49
     1.450931        109.18
     1.428236         67.23
     1.421309         77.09
     1.417887         61.05
     1.407752         28.69
     1.386756         10.81
     1.386093         56.52
     1.380648          6.57
     1.376467          8.16
     1.372359         91.58
     1.364884         20.86
     1.364800          1.03
     1.359591          0.19
     1.356067         24.17
     1.352473          6.82
     1.349781         21.18
     1.330039          2.24
     1.314606          5.66
     1.313263         33.44
     1.304203         20.69
     1.300370         47.88
     1.298036         11.53
     1.295929          9.88
     1.292186         18.73
     1.291396         62.21
     1.291258          8.83
     1.287384         20.00
     1.286971         17.76
     1.269905         55.53
     1.253045         31.31
     1.251498          2.57
     1.241240          0.09
     1.240325         22.81
     1.240211         36.94
     1.233217          6.12
     1.232411          0.80
     1.230459          0.55
     1.220827         29.00
     1.212554         48.77
     1.209349         15.24
     1.203801         40.01
     1.198389          2.66
     1.197082         60.14
     1.194768         29.28
     1.189384         42.17
     1.188700         37.62
     1.180099         44.05
     1.179221         31.61
     1.174596          9.09
     1.163433          7.30
     1.160601         33.22
     1.151196         29.14
     1.150904         95.05
     1.146670         25.90
     1.146281         11.73
     1.140914         16.08
     1.138592          7.31
     1.135514         11.11
     1.124637         13.97
     1.119559         35.95
     1.108572         21.60
     1.108443          3.30
     1.108105          7.63
     1.104516          7.59
     1.104310         14.36
     1.100326         15.07
     1.097588          0.65
     1.097209          5.46
     1.095355          4.85
     1.094789          5.02
     1.093030         10.93
     1.087415          6.32
     1.079262          2.48
     1.070546         13.19
     1.066821          1.35
     1.063804          5.93
     1.060415          3.74
     1.058333          0.42
     1.056993         15.44
     1.055866          2.99
     1.051565         11.14
     1.045579         14.17
     1.043522          6.90
     1.039332          0.00
     1.038367          5.34
     1.036456         15.43
     1.036410          0.03
     1.032350          7.09
     1.029580         12.45
     1.025198         10.08
     1.022111          2.73
     1.019693          0.79
     1.018409         13.40
     1.014163          1.43
     1.010113         23.07
     1.009203          0.19
     1.007898          3.11
     1.007018         17.45
##############################################################################
###                            Comments                                    ###
##############################################################################
###   Diffraction pattern calculated by Match!. 
###   I/Ic calculated by Match!. 
###   Space group has been derived from given symmetry operations. 
##############################################################################


