##############################################################################
###               Crystal structure data exported by Match!                ###
##############################################################################
###                           Data published by:                           ###
###                                                                        ###
###               COD (Crystallography Open Database)
##############################################################################
data_2300618
_citation_journal_full    'Journal of Applied Crystallography'
_citation_journal_volume  '47(1)'
_citation_page_first  '414'
_citation_page_last   '420'
_citation_year  '2014'
_citation_title  'Neutron and X-ray diffraction study of ferrite nanocrystals obtained bymicrowave-assisted growth. A structural comparison with the thermalsynthetic route'
loop_
_publ_author_name
  'Solano Eduardo'
  'Frontera Carlos'
  'Puig Teresa'
  'Obradors Xavier'
  'Ricart Susagna'
  'Ros Josep'
_chemical_formula_sum  'Fe2 Mn O4'
_chemical_name_common  'Iron manganese oxide'
_symmetry_space_group_name_H-M 'F d -3 m'
_space_group_IT_number 227
_space_group_crystal_system 'cubic'
loop_
_symmetry_equiv_pos_as_xyz
   'x, y, z'
   'x+0.5, y+0.5, z'
   'x+0.5, y, z+0.5'
   'x, y+0.5, z+0.5'
   '-y, x+0.25, z+0.25'
   '-y+0.5, x+0.75, z+0.25'
   '-y+0.5, x+0.25, z+0.75'
   '-y, x+0.75, z+0.75'
   '-x+0.25, -y+0.25, z'
   '-x+0.75, -y+0.75, z'
   '-x+0.75, -y+0.25, z+0.5'
   '-x+0.25, -y+0.75, z+0.5'
   'y+0.25, -x, z+0.25'
   'y+0.75, -x+0.5, z+0.25'
   'y+0.75, -x, z+0.75'
   'y+0.25, -x+0.5, z+0.75'
   'x+0.25, -z, y+0.25'
   'x+0.75, -z+0.5, y+0.25'
   'x+0.75, -z, y+0.75'
   'x+0.25, -z+0.5, y+0.75'
   'x, -y+0.25, -z+0.25'
   'x+0.5, -y+0.75, -z+0.25'
   'x+0.5, -y+0.25, -z+0.75'
   'x, -y+0.75, -z+0.75'
   'x+0.25, z+0.25, -y'
   'x+0.75, z+0.75, -y'
   'x+0.75, z+0.25, -y+0.5'
   'x+0.25, z+0.75, -y+0.5'
   'z+0.25, y+0.25, -x'
   'z+0.75, y+0.75, -x'
   'z+0.75, y+0.25, -x+0.5'
   'z+0.25, y+0.75, -x+0.5'
   '-x+0.25, y, -z+0.25'
   '-x+0.75, y+0.5, -z+0.25'
   '-x+0.75, y, -z+0.75'
   '-x+0.25, y+0.5, -z+0.75'
   '-z, y+0.25, x+0.25'
   '-z+0.5, y+0.75, x+0.25'
   '-z+0.5, y+0.25, x+0.75'
   '-z, y+0.75, x+0.75'
   'z, x, y'
   'z+0.5, x+0.5, y'
   'z+0.5, x, y+0.5'
   'z, x+0.5, y+0.5'
   'y, z, x'
   'y+0.5, z+0.5, x'
   'y+0.5, z, x+0.5'
   'y, z+0.5, x+0.5'
   '-y+0.25, -z+0.25, x'
   '-y+0.75, -z+0.75, x'
   '-y+0.75, -z+0.25, x+0.5'
   '-y+0.25, -z+0.75, x+0.5'
   'z, -x+0.25, -y+0.25'
   'z+0.5, -x+0.75, -y+0.25'
   'z+0.5, -x+0.25, -y+0.75'
   'z, -x+0.75, -y+0.75'
   '-y+0.25, z, -x+0.25'
   '-y+0.75, z+0.5, -x+0.25'
   '-y+0.75, z, -x+0.75'
   '-y+0.25, z+0.5, -x+0.75'
   '-z+0.25, -x+0.25, y'
   '-z+0.75, -x+0.75, y'
   '-z+0.75, -x+0.25, y+0.5'
   '-z+0.25, -x+0.75, y+0.5'
   '-z+0.25, x, -y+0.25'
   '-z+0.75, x+0.5, -y+0.25'
   '-z+0.75, x, -y+0.75'
   '-z+0.25, x+0.5, -y+0.75'
   'y, -z+0.25, -x+0.25'
   'y+0.5, -z+0.75, -x+0.25'
   'y+0.5, -z+0.25, -x+0.75'
   'y, -z+0.75, -x+0.75'
   'y+0.25, x+0.25, -z'
   'y+0.75, x+0.75, -z'
   'y+0.75, x+0.25, -z+0.5'
   'y+0.25, x+0.75, -z+0.5'
   '-y, -x, -z'
   '-y+0.5, -x+0.5, -z'
   '-y+0.5, -x, -z+0.5'
   '-y, -x+0.5, -z+0.5'
   '-x, z+0.25, y+0.25'
   '-x+0.5, z+0.75, y+0.25'
   '-x+0.5, z+0.25, y+0.75'
   '-x, z+0.75, y+0.75'
   '-x, -z, -y'
   '-x+0.5, -z+0.5, -y'
   '-x+0.5, -z, -y+0.5'
   '-x, -z+0.5, -y+0.5'
   'z+0.25, -y, x+0.25'
   'z+0.75, -y+0.5, x+0.25'
   'z+0.75, -y, x+0.75'
   'z+0.25, -y+0.5, x+0.75'
   '-z, -y, -x'
   '-z+0.5, -y+0.5, -x'
   '-z+0.5, -y, -x+0.5'
   '-z, -y+0.5, -x+0.5'
   '-x, -y, -z'
   '-x+0.5, -y+0.5, -z'
   '-x+0.5, -y, -z+0.5'
   '-x, -y+0.5, -z+0.5'
   'y, -x+0.25, -z+0.25'
   'y+0.5, -x+0.75, -z+0.25'
   'y+0.5, -x+0.25, -z+0.75'
   'y, -x+0.75, -z+0.75'
   'x+0.25, y+0.25, -z'
   'x+0.75, y+0.75, -z'
   'x+0.75, y+0.25, -z+0.5'
   'x+0.25, y+0.75, -z+0.5'
   '-y+0.25, x, -z+0.25'
   '-y+0.75, x+0.5, -z+0.25'
   '-y+0.75, x, -z+0.75'
   '-y+0.25, x+0.5, -z+0.75'
   '-x+0.25, z, -y+0.25'
   '-x+0.75, z+0.5, -y+0.25'
   '-x+0.75, z, -y+0.75'
   '-x+0.25, z+0.5, -y+0.75'
   '-x, y+0.25, z+0.25'
   '-x+0.5, y+0.75, z+0.25'
   '-x+0.5, y+0.25, z+0.75'
   '-x, y+0.75, z+0.75'
   '-x+0.25, -z+0.25, y'
   '-x+0.75, -z+0.75, y'
   '-x+0.75, -z+0.25, y+0.5'
   '-x+0.25, -z+0.75, y+0.5'
   '-z+0.25, -y+0.25, x'
   '-z+0.75, -y+0.75, x'
   '-z+0.75, -y+0.25, x+0.5'
   '-z+0.25, -y+0.75, x+0.5'
   'x+0.25, -y, z+0.25'
   'x+0.75, -y+0.5, z+0.25'
   'x+0.75, -y, z+0.75'
   'x+0.25, -y+0.5, z+0.75'
   'z, -y+0.25, -x+0.25'
   'z+0.5, -y+0.75, -x+0.25'
   'z+0.5, -y+0.25, -x+0.75'
   'z, -y+0.75, -x+0.75'
   '-z, -x, -y'
   '-z+0.5, -x+0.5, -y'
   '-z+0.5, -x, -y+0.5'
   '-z, -x+0.5, -y+0.5'
   '-y, -z, -x'
   '-y+0.5, -z+0.5, -x'
   '-y+0.5, -z, -x+0.5'
   '-y, -z+0.5, -x+0.5'
   'y+0.25, z+0.25, -x'
   'y+0.75, z+0.75, -x'
   'y+0.75, z+0.25, -x+0.5'
   'y+0.25, z+0.75, -x+0.5'
   '-z, x+0.25, y+0.25'
   '-z+0.5, x+0.75, y+0.25'
   '-z+0.5, x+0.25, y+0.75'
   '-z, x+0.75, y+0.75'
   'y+0.25, -z, x+0.25'
   'y+0.75, -z+0.5, x+0.25'
   'y+0.75, -z, x+0.75'
   'y+0.25, -z+0.5, x+0.75'
   'z+0.25, x+0.25, -y'
   'z+0.75, x+0.75, -y'
   'z+0.75, x+0.25, -y+0.5'
   'z+0.25, x+0.75, -y+0.5'
   'z+0.25, -x, y+0.25'
   'z+0.75, -x+0.5, y+0.25'
   'z+0.75, -x, y+0.75'
   'z+0.25, -x+0.5, y+0.75'
   '-y, z+0.25, x+0.25'
   '-y+0.5, z+0.75, x+0.25'
   '-y+0.5, z+0.25, x+0.75'
   '-y, z+0.75, x+0.75'
   '-y+0.25, -x+0.25, z'
   '-y+0.75, -x+0.75, z'
   '-y+0.75, -x+0.25, z+0.5'
   '-y+0.25, -x+0.75, z+0.5'
   'y, x, z'
   'y+0.5, x+0.5, z'
   'y+0.5, x, z+0.5'
   'y, x+0.5, z+0.5'
   'x, -z+0.25, -y+0.25'
   'x+0.5, -z+0.75, -y+0.25'
   'x+0.5, -z+0.25, -y+0.75'
   'x, -z+0.75, -y+0.75'
   'x, z, y'
   'x+0.5, z+0.5, y'
   'x+0.5, z, y+0.5'
   'x, z+0.5, y+0.5'
   '-z+0.25, y, -x+0.25'
   '-z+0.75, y+0.5, -x+0.25'
   '-z+0.75, y, -x+0.75'
   '-z+0.25, y+0.5, -x+0.75'
   'z, y, x'
   'z+0.5, y+0.5, x'
   'z+0.5, y, x+0.5'
   'z, y+0.5, x+0.5'
_cell_length_a        8.37110
_cell_length_b        8.37110
_cell_length_c        8.37110
_cell_angle_alpha    90.0000
_cell_angle_beta     90.0000
_cell_angle_gamma    90.0000
_cell_formula_units_Z 8
loop_
_atom_site_label
_atom_site_fract_x
_atom_site_fract_y
_atom_site_fract_z
_atom_site_occupancy
_atom_site_B_iso_or_equiv
fe      0.125   0.125   0.125    0.66660    0.700
mn      0.125   0.125   0.125    0.33330    0.700
fe      0.500   0.500   0.500    0.66660    1.918
mn      0.500   0.500   0.500    0.33330    1.918
o      0.251   0.251   0.251    0.99990    0.700
_cell_measurement_wavelength    1.541874
_cell_measurement_radiation   'x-rays'
_cell_measurement_temperature    300.000000
_exptl_crystal_density_diffrn    5.222000
loop_
_pd_peak_d_spacing
_pd_peak_intensity
     4.833057         57.40
     2.959631        290.80
     2.523982       1000.00
     2.416529         62.32
     2.092775        189.13
     1.920462          6.24
     1.708744         96.30
     1.611019        262.19
     1.479815        371.52
     1.414974          2.22
     1.395183          0.00
     1.323587         34.50
     1.276581         70.10
     1.261991         16.50
     1.208264         17.84
     1.172189          0.41
     1.118635         35.71
     1.089824        106.81
     1.046388         40.53
     1.022693          0.01
     1.015145          0.00
     0.986544         18.84
     0.966611         57.94
     0.960231          4.55
     0.935917         17.73
     0.918848          0.01
     0.913362          0.00
     0.892362         11.63
     0.877530         45.65
     0.854372        121.78
     0.841327          0.14
     0.820854         43.87
     0.809265         87.38
     0.805510          4.35
##############################################################################
###                            Comments                                    ###
##############################################################################
###   Diffraction pattern calculated by Match!. 
###   I/Ic calculated by Match!. 
###   Space group has been derived from given symmetry operations. 
##############################################################################


