##############################################################################
###               Crystal structure data exported by Match!                ###
##############################################################################
###                           Data published by:                           ###
###                                                                        ###
###               COD (Crystallography Open Database)
##############################################################################
data_9016565
_citation_journal_full    'Proceedings of the Royal Society of London A'
_citation_journal_volume  '109'
_citation_page_first  '598'
_citation_page_last   '620'
_citation_year  '1925'
_citation_title  'The Crystal Structures of Barytes, Celestine and Anglesite_cod_database_code 1010543'
loop_
_publ_author_name
  'James R.'
_chemical_formula_sum  'S Sr'
_chemical_name_mineral  'Celestine'
_symmetry_space_group_name_H-M 'P n m a'
_space_group_IT_number 62
_space_group_crystal_system 'orthorhombic'
loop_
_symmetry_equiv_pos_as_xyz
   'x, y, z'
   '-x+0.5, -y, z+0.5'
   'x+0.5, -y+0.5, -z+0.5'
   '-x, y+0.5, -z'
   '-x, -y, -z'
   'x+0.5, y, -z+0.5'
   '-x+0.5, y+0.5, z+0.5'
   'x, -y+0.5, z'
_cell_length_a        8.36000
_cell_length_b        5.36000
_cell_length_c        6.84000
_cell_angle_alpha    90.0000
_cell_angle_beta     90.0000
_cell_angle_gamma    90.0000
loop_
_atom_site_label
_atom_site_fract_x
_atom_site_fract_y
_atom_site_fract_z
_atom_site_occupancy
_atom_site_B_iso_or_equiv
sr      0.321   0.250   0.339    1.00000    1.000
s      0.443   0.250   -0.195    1.00000    1.000
_cell_measurement_wavelength    1.541874
_cell_measurement_radiation   'x-rays'
_exptl_crystal_density_diffrn    2.594000
loop_
_pd_peak_d_spacing
_pd_peak_intensity
     5.293868         28.22
     4.218944        386.02
     4.180000         90.86
     3.766493        491.17
     3.566718        198.29
     3.420000        283.70
     3.296178       1000.00
     3.165371        677.33
     2.969379        915.99
     2.725575        415.49
     2.680000        498.97
     2.646934          1.81
     2.580711        156.26
     2.391061          9.21
     2.373317        203.23
     2.325230         37.48
     2.256110         39.64
     2.199662          5.31
     2.160321          0.01
     2.142569        101.31
     2.109472        129.02
     2.098073         19.95
     2.090000          3.04
     2.045362        361.70
     2.034966        279.36
     2.003697        248.61
     2.001602          8.29
     1.998775        284.41
     1.947207         75.80
     1.883247          1.78
     1.875122          1.63
     1.872797         16.52
     1.858948        107.39
     1.783359          0.41
     1.764623        168.40
     1.728666         34.09
     1.710000         18.45
     1.700286          5.02
     1.692854         44.59
     1.692156          6.28
     1.681919          0.04
     1.676125         56.06
     1.675313         78.24
     1.648089          2.68
     1.642883        106.11
     1.624179         20.01
     1.603690          7.30
     1.602235        254.43
     1.599026         82.70
     1.597450        115.21
     1.582685         17.15
     1.555922         60.53
     1.554384         32.57
     1.540652          0.44
     1.517896         29.51
     1.502099          8.07
     1.484690          0.42
     1.480880         37.72
     1.480699          0.00
     1.473826        170.90
     1.468978          7.12
     1.457472          0.89
     1.446376         56.97
     1.441553         19.34
     1.420588         83.33
     1.406405         42.26
     1.406315          4.47
     1.393333         13.68
     1.389009         21.94
     1.386829         68.79
     1.376809         62.67
     1.365295          0.65
     1.362788         19.25
     1.358066         20.26
     1.350044          1.48
     1.348516         27.37
     1.348309         35.90
     1.340000         43.54
     1.335676          0.51
     1.332900          0.43
     1.332064          4.57
     1.325510         35.66
     1.323467          0.84
     1.323048         79.62
     1.310319          9.48
     1.309156          3.18
     1.307574         70.35
     1.300143         20.38
     1.299031          1.16
     1.290355          2.49
     1.284879         35.80
     1.280380          1.10
     1.276036          5.34
     1.263504         30.80
     1.262193          2.06
     1.255498         18.50
     1.254515         13.41
     1.254394         14.64
     1.247650         18.25
     1.236239         17.24
     1.233984         55.33
     1.228009          8.56
     1.222096         29.55
     1.216529          0.82
     1.205704          1.96
     1.204467         46.87
     1.201816         12.19
     1.196996          9.23
     1.195531          0.34
     1.195491          0.65
     1.189242         19.97
     1.188906          1.16
     1.186659          1.12
     1.184711         11.44
     1.176487          0.19
     1.169759         27.56
     1.166821         17.40
     1.166769          0.00
     1.162615          3.37
     1.160696          0.00
     1.149753         23.99
     1.149131         11.41
     1.144608         25.50
     1.144377          1.12
     1.140000         17.50
     1.138728          0.01
     1.129546          0.15
     1.129366         18.63
     1.128055          0.64
     1.127515         27.09
     1.119369          2.04
     1.116391         12.34
     1.113508          1.88
     1.113020         65.44
     1.105271          1.88
     1.103367          2.02
     1.099831          5.57
     1.098726         13.19
     1.091790          0.94
     1.086768          1.73
     1.086175         17.60
     1.084820         39.63
     1.080161          7.55
     1.077384         33.87
     1.077258          0.30
     1.077122          1.59
     1.076240         35.91
     1.071284          0.13
     1.067182         53.38
     1.063479         18.82
     1.059072          5.66
     1.058874          2.17
     1.058774          2.58
     1.057936          1.00
     1.055124          2.11
     1.054736          6.34
     1.052623         39.68
     1.051263         16.74
     1.050675          7.87
     1.049036         27.39
     1.046440         28.53
     1.046068          7.46
     1.045000         16.05
     1.040874          0.24
     1.039284         42.94
     1.038703         12.12
     1.038395         20.46
     1.037912         26.64
     1.035256          4.76
     1.033624          7.94
     1.033014          1.28
     1.026632         24.10
     1.025688          4.92
     1.022681          7.33
     1.017483          9.07
     1.015353         13.69
     1.014347          7.96
     1.012017          5.68
     1.011073          0.22
##############################################################################
###                            Comments                                    ###
##############################################################################
###   Diffraction pattern calculated by Match!. 
###   I/Ic calculated by Match!. 
###   Space group has been derived from given symmetry operations. 
##############################################################################


