##############################################################################
###               Crystal structure data exported by Match!                ###
##############################################################################
###                           Data published by:                           ###
###                                                                        ###
###               COD (Crystallography Open Database)
##############################################################################
data_9010964
_citation_journal_full    'Physics and Chemistry of Minerals'
_citation_journal_volume  '35'
_citation_page_first  '279'
_citation_page_last   '285'
_citation_year  '2008'
_citation_title  'Surface modes in the infrared spectrum of hydrous minerals: the OH stretchingmodes of bayerite Locality: synthetic'
loop_
_publ_author_name
  'Balan E.'
  'Blanchard M.'
  'Hochepied J.-F.'
  'Lazzeri M.'
_chemical_formula_sum  'Al H3 O3'
_chemical_name_mineral  'Bayerite'
_symmetry_space_group_name_H-M 'P 1 21/n 1'
_space_group_IT_number 14
_space_group_crystal_system 'monoclinic'
loop_
_symmetry_equiv_pos_as_xyz
   'x, y, z'
   '-x+0.5, y+0.5, -z+0.5'
   '-x, -y, -z'
   'x+0.5, -y+0.5, z+0.5'
_cell_length_a        5.09600
_cell_length_b        8.72900
_cell_length_c        9.48900
_cell_angle_alpha    90.0000
_cell_angle_beta     90.2600
_cell_angle_gamma    90.0000
loop_
_atom_site_label
_atom_site_fract_x
_atom_site_fract_y
_atom_site_fract_z
_atom_site_occupancy
_atom_site_B_iso_or_equiv
al      0.525   0.165   -0.004    1.00000    1.000
al      0.030   0.332   -0.004    1.00000    1.000
o      0.127   0.508   0.387    1.00000    1.000
o      0.350   0.327   0.108    1.00000    1.000
o      0.717   0.312   0.385    1.00000    1.000
o      0.874   0.491   0.112    1.00000    1.000
o      0.654   0.677   0.398    1.00000    1.000
o      0.281   0.687   0.115    1.00000    1.000
h      0.043   0.505   0.292    1.00000    1.000
h      0.316   0.294   0.206    1.00000    1.000
h      0.755   0.276   0.289    1.00000    1.000
h      0.688   0.464   0.125    1.00000    1.000
h      0.552   0.582   0.387    1.00000    1.000
h      0.359   0.591   0.146    1.00000    1.000
_cell_measurement_wavelength    1.541874
_cell_measurement_radiation   'x-rays'
_exptl_crystal_density_diffrn    2.455000
loop_
_pd_peak_d_spacing
_pd_peak_intensity
     6.424208          0.15
     4.744451       1000.00
     4.498007          0.04
     4.481023          0.12
     4.400887        511.95
     4.364500        222.72
     4.168505          0.88
     3.998381          0.02
     3.986437          0.01
     3.965169          0.04
     3.314886          1.43
     3.232849        114.27
     3.220240         99.97
     3.212104        124.97
     3.132303          0.22
     3.126551          0.58
     2.973761          0.43
     2.781821          0.01
     2.721109         42.86
     2.713577          0.03
     2.692873          0.07
     2.681945          1.40
     2.573209          0.51
     2.563668          0.00
     2.561133          0.41
     2.547974          1.77
     2.526790          0.86
     2.480371         14.30
     2.445903          0.34
     2.443070          1.13
     2.440337          0.02
     2.372226         47.74
     2.370982          0.33
     2.365994          0.60
     2.291759          0.02
     2.289196          0.53
     2.285012          0.01
     2.249003         25.00
     2.240511        379.25
     2.232305        774.02
     2.228141         50.37
     2.200444          0.82
     2.182250          0.27
     2.177879          1.24
     2.170164         34.59
     2.145413          0.61
     2.141716          0.02
     2.141403          0.36
     2.126733          0.38
     2.091604         14.86
     2.084768         12.07
     2.084253         19.93
     2.006050          2.45
     1.999190         29.24
     1.993218         12.71
     1.982585         25.67
     1.976352          0.14
     1.972020          0.50
     1.963380          0.00
     1.961961          0.57
     1.938968          0.11
     1.931834         17.80
     1.930810          0.05
     1.926444          0.60
     1.916888          0.34
     1.880178          0.13
     1.877688          0.30
     1.854459          0.12
     1.848862         18.24
     1.846494          0.81
     1.838603          0.21
     1.809652          0.03
     1.803015          0.10
     1.796219          0.15
     1.781103          0.36
     1.779418          1.20
     1.775824          0.00
     1.775203          2.06
     1.745144          0.28
     1.740373          0.02
     1.740178          0.47
     1.740169         38.55
     1.732310        126.13
     1.731424        263.84
     1.727540         98.76
     1.716982          0.04
     1.706588         17.49
     1.699173         12.44
     1.695433          0.03
     1.692695          0.34
     1.673387          0.03
     1.670754          0.05
     1.667372         10.40
     1.657443         10.69
     1.651570         16.69
     1.649073          0.00
     1.644880          0.16
     1.643460          0.02
     1.641819          0.01
     1.640966          0.19
     1.638401          0.08
     1.636857          0.07
     1.633540          0.01
     1.631906          0.01
     1.627512          0.13
     1.626703          0.01
     1.616425         30.28
     1.610120         35.63
     1.606052         30.35
     1.589558          0.07
     1.582984         28.96
     1.581484          1.21
     1.575254          0.00
     1.570870         31.33
     1.566151         25.53
     1.563275          0.87
     1.562479          0.03
     1.560480         29.17
     1.560335          0.03
     1.559055          0.37
     1.556150          0.07
     1.533130          5.75
     1.530432          0.00
     1.528437          0.13
     1.519091          0.00
     1.515812          0.06
     1.503518          5.78
     1.502553          0.00
     1.499705         12.08
     1.499336          0.20
     1.496226          0.03
     1.493674          0.07
     1.493456          0.37
     1.490163          6.95
     1.488480          0.10
     1.486881          4.98
     1.486451          6.49
     1.477696          0.15
     1.472275          0.03
     1.469876          0.06
     1.466962        121.26
     1.466313          0.59
     1.464889          0.00
     1.463122          0.05
     1.454833         79.35
     1.450599          0.01
     1.448883          0.03
     1.440176          0.87
     1.439918          0.00
     1.438030          0.03
     1.434347          0.02
     1.432020          0.07
     1.429003          0.36
     1.425728          0.01
     1.424412          0.17
     1.423328          0.05
     1.417998          0.00
     1.413206          0.00
     1.406076          0.00
     1.403051         34.58
     1.399951         27.65
     1.398941          2.95
     1.390910         39.31
     1.389502          1.00
     1.384230          0.00
     1.383732          0.04
     1.379852          0.03
     1.379068          1.28
     1.377393          0.00
     1.377103          1.77
     1.366989          3.14
     1.361271          8.39
     1.360555          7.24
     1.356789          4.80
     1.356363          7.07
     1.354493          2.18
     1.350946          0.02
     1.346437         48.52
     1.346342          0.08
     1.342280          0.27
     1.341920          3.12
     1.341373          0.06
     1.340972          1.48
     1.340432         22.64
     1.339502          0.03
     1.339207        119.62
     1.332794          0.04
     1.330699         17.49
     1.328812          0.00
     1.327914          0.05
     1.326597          0.00
     1.325424          0.41
     1.321723          0.02
     1.319317          0.10
     1.314175          0.48
     1.311973          0.11
     1.311481          0.00
     1.309437          0.00
     1.308528          0.03
     1.296925          0.02
     1.294556          0.00
     1.294068          0.01
     1.291149          1.98
     1.288732          9.61
     1.286604          4.98
     1.284842          0.05
     1.281834         11.23
     1.280566          6.97
     1.279980          0.01
     1.278801          0.03
     1.273987          0.79
     1.268557          0.02
     1.263395          4.65
     1.262848          0.00
     1.260631          4.60
     1.256002          0.00
     1.255370          0.04
     1.253407          0.00
     1.252712          0.07
     1.251975          0.00
     1.250385          0.02
     1.250198          0.02
     1.249867          0.00
     1.249837          0.01
     1.248919          0.05
     1.246761          0.04
     1.246546          0.01
     1.245492          0.03
     1.244946          0.00
     1.243034          0.02
     1.240876          0.09
     1.240186          0.04
     1.236369          0.02
     1.235769          0.04
     1.232594          0.10
     1.232471          3.48
     1.231801         11.63
     1.229670          1.50
     1.229005          0.06
     1.228753          0.03
     1.222952         11.26
     1.221948          0.14
     1.221535          0.07
     1.220169         48.70
     1.219717         22.30
     1.218146          0.05
     1.217859          0.32
     1.217454          6.97
     1.217001          0.06
     1.213590          0.03
     1.213089          0.05
     1.212250          0.01
     1.211262          9.99
     1.208052          0.03
     1.207060          0.06
     1.206038          0.39
     1.205671          1.28
     1.204358          1.48
     1.201675          0.00
     1.201350          0.01
     1.195640          0.00
     1.193401          0.00
     1.187840          0.01
     1.186113         26.88
     1.185491          8.69
     1.183461          0.00
     1.182997          0.04
     1.180173          0.11
     1.178326         14.67
     1.175312          1.27
     1.174172          0.00
     1.173922          0.15
     1.173315         11.86
     1.172860          0.01
     1.172354          0.02
     1.172075          0.06
     1.169243          0.00
     1.168807          0.23
     1.167024          0.03
     1.165227          0.00
     1.162846          0.00
     1.160096          0.07
     1.158880          0.03
     1.158444          0.00
     1.157714          0.02
     1.156160          0.00
     1.154604          0.01
     1.152120          0.00
     1.151486          0.00
     1.150001          6.15
     1.148655          0.00
     1.146376          4.05
     1.145880          0.53
     1.145821          0.00
     1.144897          0.20
     1.144598          3.24
     1.144121          5.52
     1.143092          0.78
     1.142506          7.32
     1.142333          0.02
     1.141413          7.00
     1.138991          0.00
     1.137435          0.00
     1.134957          0.00
     1.134338          0.11
     1.132153          0.18
     1.131563          0.00
     1.130748          0.00
     1.126733          0.01
     1.125393          0.01
     1.124502         10.32
     1.124101          0.08
     1.122240          0.01
     1.121181          1.97
     1.120256          6.14
     1.120056          0.13
     1.117822          0.01
     1.116450          0.21
     1.116152         10.72
     1.115730          0.01
     1.115285          9.15
     1.114070         32.28
     1.112592          0.08
     1.112075          0.06
     1.111143          1.45
     1.108563          0.02
     1.105000          0.01
     1.104962          0.42
     1.103788          0.03
     1.100222          4.89
     1.098359          0.07
     1.097918          0.01
     1.097174          0.02
     1.096719          0.05
     1.096357          0.02
     1.093401          0.00
     1.093390          0.04
     1.093024          0.03
     1.092410          0.02
     1.091125          3.93
     1.090577          0.01
     1.089605          1.35
     1.088939          0.01
     1.085082          0.17
     1.084574          0.15
     1.083982          0.01
     1.081712          1.50
     1.079244          0.22
     1.078301          1.03
     1.077616          0.69
     1.077183          6.11
     1.076864          0.22
     1.075461          0.11
     1.074632          0.17
     1.073449          0.03
     1.073413          2.25
     1.072774         14.87
     1.072707          2.35
     1.070858          1.45
     1.070701          1.79
     1.070692          0.06
     1.069073          1.97
     1.066942          0.47
     1.066180          3.36
     1.065423          0.00
     1.063461          0.44
     1.063366          3.17
     1.061887          0.01
     1.060372          0.07
     1.060149          0.11
     1.057198          0.02
     1.056475          0.10
     1.055150          0.00
     1.054115          0.04
     1.052760          0.00
     1.052251          0.01
     1.050830          0.00
     1.050576          0.00
     1.049529          0.03
     1.048895          0.06
     1.048570          0.01
     1.048471          0.25
     1.047904          0.00
     1.047794          0.03
     1.047176          0.00
     1.047059          0.05
     1.046715          0.00
     1.045802          0.33
     1.045447          0.02
     1.044101          0.01
     1.042384          0.44
     1.042184          0.02
     1.042153          0.14
     1.042126          0.54
     1.041157          0.47
     1.040733          0.13
     1.040416          0.02
     1.037889          0.01
     1.033388          0.01
     1.031787          0.00
     1.031528          0.02
     1.031475          0.03
     1.030038          0.00
     1.029108          3.41
     1.027485          0.00
     1.026240          0.00
     1.026221          0.04
     1.025960          0.05
     1.024844          0.01
     1.024401          0.00
     1.024360          1.43
     1.023511          0.00
     1.023210          0.00
     1.022707          0.02
     1.021796          0.00
     1.021521          0.01
     1.020748          0.00
     1.020522          0.04
     1.020197          0.02
     1.013850          0.02
     1.013616          3.71
     1.012873          0.00
     1.012313          0.08
     1.012056          2.71
     1.011264          0.01
     1.010682          0.09
     1.010180          0.14
     1.007098          0.00
     1.007079          0.02
     1.006486          5.62
##############################################################################
###                            Comments                                    ###
##############################################################################
###   Diffraction pattern calculated by Match!. 
###   I/Ic calculated by Match!. 
##############################################################################


