##############################################################################
###               Crystal structure data exported by Match!                ###
##############################################################################
###                           Data published by:                           ###
###                                                                        ###
###               COD (Crystallography Open Database)
##############################################################################
data_7202756
_citation_journal_full    'CrystEngComm'
_citation_journal_volume  '9(6)'
_citation_page_first  '463'
_citation_year  '2007'
_citation_title  'A computational study into the viability of new molecular materialspolymorphs based on fully-coordinated inorganic nanoclusters'
loop_
_publ_author_name
  'Bromley Stefan T.'
_chemical_formula_sum  'O2 Si'
_chemical_name_common  'Silica'
_symmetry_space_group_name_H-M 'P 1'
_space_group_IT_number 1
_space_group_crystal_system 'triclinic'
loop_
_symmetry_equiv_pos_as_xyz
   'x, y, z'
_cell_length_a        8.24850
_cell_length_b        5.14350
_cell_length_c        4.71700
_cell_angle_alpha    90.0000
_cell_angle_beta     90.0000
_cell_angle_gamma    90.0000
loop_
_atom_site_label
_atom_site_fract_x
_atom_site_fract_y
_atom_site_fract_z
_atom_site_occupancy
_atom_site_B_iso_or_equiv
si      0.500   0.500   0.750    1.00000    1.000
si      0.500   0.500   0.250    1.00000    1.000
o      0.601   0.665   0.500    1.00000    1.000
o      0.399   0.335   0.500    1.00000    1.000
o      0.601   0.335   0.000    1.00000    1.000
o      0.399   0.665   0.000    1.00000    1.000
si      0.000   0.000   0.250    1.00000    1.000
si      1.000   0.000   0.750    1.00000    1.000
o      0.101   0.165   0.000    1.00000    1.000
o      0.899   0.835   0.000    1.00000    1.000
o      0.101   0.835   0.500    1.00000    1.000
o      0.899   0.165   0.500    1.00000    1.000
_cell_measurement_wavelength    1.541874
_cell_measurement_radiation   'x-rays'
_exptl_crystal_density_diffrn    1.994000
loop_
_pd_peak_d_spacing
_pd_peak_intensity
     4.364486       1000.00
     4.124250        353.55
     2.658092        195.82
     2.571750          9.25
     2.424795         51.09
     2.358500          0.77
     2.182243         39.26
     2.177837         37.50
     2.074923         28.00
     2.062125          0.21
     2.047369         20.37
     1.773578         13.60
     1.744959         36.61
     1.738220         55.65
     1.690663         62.19
     1.678622          0.86
     1.608806         36.37
     1.601770         48.44
     1.570879          4.51
     1.552417         53.09
     1.500873          0.04
     1.454829         21.99
     1.412685         12.71
     1.374750          0.48
     1.367600         60.08
     1.332051          0.01
     1.329046          8.00
     1.324083          3.68
     1.307422         35.75
     1.285875          1.17
     1.278420          3.20
     1.269694          0.01
     1.238209          7.46
     1.227592          5.10
     1.226806          2.29
     1.214953          2.09
     1.212398         11.09
     1.205634          5.85
     1.188762         19.75
     1.187708         16.11
     1.179250          9.56
     1.148600          4.23
     1.138427         18.17
     1.133812          7.77
     1.130821          3.95
     1.128981         10.25
     1.115613          0.01
     1.091121          8.15
     1.088919         11.29
     1.078272          4.36
     1.071931          1.70
     1.061543          0.45
     1.060488          6.25
     1.045843          0.00
     1.044658          3.27
     1.040802          0.00
     1.037462          6.16
     1.032651          9.30
     1.031062          3.07
     1.023685          0.53
     1.020792          5.97
     1.014609          1.17
     1.010230          0.00
##############################################################################
###                            Comments                                    ###
##############################################################################
###   Diffraction pattern calculated by Match!. 
###   I/Ic calculated by Match!. 
##############################################################################


