##############################################################################
###               Crystal structure data exported by Match!                ###
##############################################################################
###                           Data published by:                           ###
###                                                                        ###
###               COD (Crystallography Open Database)
##############################################################################
data_7226350
_citation_journal_full    'RSC Adv.'
_citation_year  '2016'
_citation_title  'Facile, ethylene glycol-promoted microwave-assisted solvothermalsynthesis of high-performance LiCoPO4as a high-voltage cathode materialfor lithium-ion batteries'
loop_
_publ_author_name
  'Ludwig Jennifer'
  'Marino Cyril'
  'Haering Dominik'
  'Stinner Christoph'
  'Nordlund Dennis'
  'Doeff Marca'
  'Gasteiger Hubert A.'
  'Nilges Tom'
_chemical_formula_sum  'Co Li O4 P'
_chemical_name_common  'Lithium cobalt phosphate'
_symmetry_space_group_name_H-M 'P n m a'
_space_group_IT_number 62
_space_group_crystal_system 'orthorhombic'
loop_
_symmetry_equiv_pos_as_xyz
   'x, y, z'
   '-x+0.5, -y, z+0.5'
   'x+0.5, -y+0.5, -z+0.5'
   '-x, y+0.5, -z'
   '-x, -y, -z'
   'x+0.5, y, -z+0.5'
   '-x+0.5, y+0.5, z+0.5'
   'x, -y+0.5, z'
_cell_length_a       10.19300
_cell_length_b        5.91880
_cell_length_c        4.69590
_cell_angle_alpha    90.0000
_cell_angle_beta     90.0000
_cell_angle_gamma    90.0000
_cell_formula_units_Z 4
loop_
_atom_site_label
_atom_site_fract_x
_atom_site_fract_y
_atom_site_fract_z
_atom_site_occupancy
_atom_site_B_iso_or_equiv
li      0.000   0.000   0.000    1.00000    1.097
co      0.221   0.250   0.521    1.00000    0.947
p      0.405   0.250   0.082    1.00000    0.576
o      0.405   0.250   0.766    1.00000    0.315
o      0.044   0.250   0.292    1.00000    0.315
o      0.336   0.048   0.216    1.00000    0.315
_cell_measurement_wavelength    1.541874
_cell_measurement_radiation   'x-rays'
_cell_measurement_temperature    298.000000
_exptl_crystal_density_diffrn    3.771000
_exptl_crystal_colour            'violet'
loop_
_pd_peak_d_spacing
_pd_peak_intensity
     5.096500        353.88
     4.265048        564.77
     3.862047        174.70
     3.678718         77.30
     3.460259        799.05
     3.453453        110.90
     2.982840         76.52
     2.959400        617.71
     2.752696        255.01
     2.559225         28.63
     2.548250          1.15
     2.495966       1000.00
     2.431414        257.46
     2.347950         13.05
     2.340544        173.27
     2.288032         94.01
     2.247170        110.17
     2.239729        134.54
     2.134124         68.63
     2.132524        122.11
     2.094766          1.40
     2.015567         50.04
     2.006275         37.81
     1.931604          0.43
     1.931024         30.15
     1.869989         11.24
     1.839883          2.22
     1.839359        127.34
     1.836291          1.23
     1.818919          8.48
     1.810123         17.98
     1.790632        135.92
     1.785921          0.14
     1.783112         83.86
     1.730130        330.06
     1.726727         82.42
     1.713086         44.21
     1.698833         14.91
     1.657627        138.97
     1.632903        156.91
     1.617542          0.40
     1.603588        213.23
     1.597508          2.07
     1.580840         18.59
     1.560017         98.19
     1.547163          4.62
     1.542318          3.21
     1.539343          0.38
     1.513275          0.30
     1.496868         96.40
     1.496316         17.18
     1.494160         10.12
     1.491420         10.61
     1.489783         30.62
     1.480461          3.40
     1.479700        124.00
     1.473336        129.80
     1.450677         26.84
     1.448211          0.77
     1.421683          6.08
     1.421019          8.66
     1.405769          0.59
     1.397957         24.84
     1.390811         57.49
     1.382364         53.49
     1.380231          5.37
     1.376348         23.26
     1.371097          1.87
     1.365645          4.31
     1.360109          0.78
     1.357217         19.39
     1.353933          1.65
     1.340580         29.16
     1.335333         90.34
     1.333767         15.85
     1.303331         28.42
     1.301140         41.57
     1.299360         19.03
     1.287349         53.97
     1.281482         27.32
     1.279613          2.08
     1.274125          0.03
     1.258734         68.77
     1.251843         14.00
     1.247983          2.44
     1.245591          0.65
     1.242508         12.94
     1.241541          5.44
     1.241534          7.18
     1.237482          3.80
     1.234597          6.96
     1.229666          0.08
     1.226239          5.64
     1.217461         22.10
     1.215977          1.12
     1.215707         34.29
     1.215090          5.27
     1.213640         19.24
     1.211291          0.04
     1.203957          1.39
     1.192216          5.62
     1.174651          0.55
     1.173975         15.59
     1.170272          0.18
     1.166265          6.25
     1.160366          1.65
     1.153420         26.01
     1.153065          7.46
     1.151151          0.69
     1.147851          5.69
     1.144867         29.17
     1.144263          0.80
     1.144016         10.52
     1.141688         15.96
     1.140641         12.80
     1.136749          2.30
     1.135541         15.82
     1.129978         12.18
     1.128812         17.19
     1.123585         17.65
     1.123227          3.86
     1.119864          3.68
     1.119801          0.46
     1.115791         14.07
     1.109606          1.11
     1.104962         35.26
     1.100987         17.52
     1.100342         25.03
     1.091248          4.73
     1.090606          0.26
     1.087469         48.94
     1.085567          0.62
     1.085048         35.04
     1.082420          4.02
     1.073577          5.51
     1.072845          0.40
     1.070330          1.29
     1.069361          0.73
     1.067062         13.17
     1.066768          0.08
     1.066262          5.91
     1.066152         14.07
     1.052131         18.02
     1.051381          7.19
     1.050791          9.37
     1.049370          3.13
     1.049265          4.15
     1.048331          0.27
     1.047383          0.04
     1.046575          2.22
     1.043566          0.00
     1.038976          2.44
     1.034993          6.46
     1.031890         49.15
     1.025179          7.19
     1.020084          1.97
     1.019300          2.08
     1.017342          9.20
     1.013420         37.85
     1.009305          0.14
     1.007784          7.32
##############################################################################
###                            Comments                                    ###
##############################################################################
###   Diffraction pattern calculated by Match!. 
###   I/Ic calculated by Match!. 
###   Space group has been derived from given symmetry operations. 
##############################################################################


