##############################################################################
###               Crystal structure data exported by Match!                ###
##############################################################################
###                           Data published by:                           ###
###                                                                        ###
###               COD (Crystallography Open Database)
##############################################################################
data_4124048
_citation_journal_full    'Journal of the American Chemical Society'
_citation_journal_volume  '126'
_citation_page_first  '9769'
_citation_page_last   '9775'
_citation_year  '2004'
_citation_title  'Chemical evaluation of hypothetical uninodal zeolites'
loop_
_publ_author_name
  'Foster M.D.'
  'Bell R.G.'
  'Friedrichs O.D.'
  'Paz F.A.A.'
  'Klinowski J.'
_chemical_formula_sum  'O2 Si'
_chemical_name_common  'Silica'
_symmetry_space_group_name_H-M 'F d d d'
_space_group_IT_number 70
_space_group_crystal_system 'orthorhombic'
loop_
_symmetry_equiv_pos_as_xyz
   'x, y, z'
   'x+0.5, y+0.5, z'
   'x+0.5, y, z+0.5'
   'x, y+0.5, z+0.5'
   '-x+0.25, -y+0.25, -z+0.25'
   '-x+0.75, -y+0.75, -z+0.25'
   '-x+0.75, -y+0.25, -z+0.75'
   '-x+0.25, -y+0.75, -z+0.75'
   '-x, -y, z'
   '-x+0.5, -y+0.5, z'
   '-x+0.5, -y, z+0.5'
   '-x, -y+0.5, z+0.5'
   'x, -y, -z'
   'x+0.5, -y+0.5, -z'
   'x+0.5, -y, -z+0.5'
   'x, -y+0.5, -z+0.5'
   '-x, y, -z'
   '-x+0.5, y+0.5, -z'
   '-x+0.5, y, -z+0.5'
   '-x, y+0.5, -z+0.5'
   'x+0.25, y+0.25, -z+0.25'
   'x+0.75, y+0.75, -z+0.25'
   'x+0.75, y+0.25, -z+0.75'
   'x+0.25, y+0.75, -z+0.75'
   '-x+0.25, y+0.25, z+0.25'
   '-x+0.75, y+0.75, z+0.25'
   '-x+0.75, y+0.25, z+0.75'
   '-x+0.25, y+0.75, z+0.75'
   'x+0.25, -y+0.25, z+0.25'
   'x+0.75, -y+0.75, z+0.25'
   'x+0.75, -y+0.25, z+0.75'
   'x+0.25, -y+0.75, z+0.75'
_cell_length_a        4.84240
_cell_length_b       15.11613
_cell_length_c       20.60749
_cell_angle_alpha    90.0000
_cell_angle_beta     90.0000
_cell_angle_gamma    90.0000
_cell_formula_units_Z 32
loop_
_atom_site_label
_atom_site_fract_x
_atom_site_fract_y
_atom_site_fract_z
_atom_site_occupancy
_atom_site_B_iso_or_equiv
o      0.500   0.000   0.798    1.00000    1.000
o      0.750   0.382   0.250    1.00000    1.000
o      0.500   0.000   0.341    1.00000    1.000
o      0.375   0.625   0.375    1.00000    1.000
si      0.759   0.063   0.319    1.00000    1.000
_cell_measurement_wavelength    1.541874
_cell_measurement_radiation   'x-rays'
_exptl_crystal_density_diffrn    2.116000
loop_
_pd_peak_d_spacing
_pd_peak_intensity
     6.094301       1000.00
     5.151873         26.99
     4.500250        325.32
     3.828764          4.49
     3.779032          0.01
     3.442375        557.29
     3.126869        196.59
     3.112460         12.71
     3.073043          0.25
     3.047151          1.37
     2.664033         71.12
     2.575936         24.67
     2.544840         18.35
     2.481408         22.99
     2.447263          3.73
     2.402504         14.55
     2.357001         31.18
     2.305777          2.07
     2.250644          0.11
     2.250125         19.31
     2.177384          5.64
     2.128486         41.50
     2.104605          0.00
     2.050837         10.63
     2.031434          2.64
     1.999896         40.68
     1.988172          4.38
     1.978914          3.37
     1.963257          0.01
     1.933688        134.43
     1.914702         17.94
     1.914382          4.64
     1.895643          1.35
     1.889516          0.04
     1.779033          5.36
     1.773967          0.15
     1.753095          0.29
     1.745716         56.40
     1.735655          0.33
     1.721188          2.35
     1.718032         10.93
     1.717291          3.11
     1.707984         12.46
     1.653375          0.76
     1.650781          0.00
     1.638520          3.50
     1.600163          1.09
     1.598594          0.06
     1.595100          0.73
     1.582146          0.88
     1.569293          0.24
     1.563434          0.00
     1.562913          9.12
     1.556230          3.49
     1.546112          0.18
     1.536522          1.08
     1.532926         18.26
     1.523575         29.17
     1.512749          0.16
     1.500083          4.60
     1.499097          0.24
     1.495604          0.44
     1.494324         18.39
     1.480864          1.32
     1.474269         18.45
     1.449299          1.14
     1.445122         22.64
     1.444818          5.34
     1.443389         21.06
     1.440271          1.22
     1.430981          0.00
     1.420507         10.88
     1.409185          8.02
     1.396833          1.26
     1.394254          0.04
     1.383543          2.43
     1.377278          3.32
     1.366601         46.61
     1.362613          3.89
     1.358291          0.00
     1.348383          2.27
     1.345840          3.96
     1.332016          2.07
     1.319280          2.16
     1.316648         12.65
     1.314280          0.14
     1.313410          0.25
     1.304242          8.17
     1.298170          0.77
     1.290335          0.77
     1.289512          0.00
     1.287968          5.95
     1.282235         10.73
     1.281831         15.37
     1.278423          7.72
     1.276255          9.90
     1.272420          0.44
     1.270937          7.98
     1.270843          2.31
     1.270563          0.17
     1.259677          0.02
     1.258821          1.91
     1.257767         16.58
     1.244276          1.26
     1.240704          0.96
     1.235559          2.69
     1.233602          5.98
     1.224234          2.44
     1.223631          0.01
     1.219108          3.06
     1.218861          0.25
     1.218860          0.89
     1.211004          8.62
     1.210842          0.10
     1.210600          8.10
     1.209161          1.36
     1.207229          6.11
     1.205978         21.29
     1.201252          1.02
     1.193403          0.13
     1.188348          1.10
     1.187399          8.04
     1.183749          0.02
     1.178501          0.28
     1.172378          1.10
     1.164430          0.39
     1.161959          1.27
     1.152889          1.07
     1.147886         11.59
     1.147458          0.00
     1.145739          0.43
##############################################################################
###                            Comments                                    ###
##############################################################################
###   Diffraction pattern calculated by Match!. 
###   I/Ic calculated by Match!. 
###   Space group has been derived from given symmetry operations. 
##############################################################################


