##############################################################################
###               Crystal structure data exported by Match!                ###
##############################################################################
###                           Data published by:                           ###
###                                                                        ###
###               COD (Crystallography Open Database)
##############################################################################
data_5000101
_citation_journal_full    'Zeitschrift fuer Kristallographie, Kristallgeometrie, Kristallphysik,Kristallchemie (-144,1977)'
_citation_journal_volume  '121'
_citation_page_first  '87'
_citation_page_last   '113'
_citation_year  '1965'
loop_
_publ_author_name
  'Cid-Dresdner H'
_chemical_formula_sum  'Al6 Cu H16 O28 P4'
_chemical_name_mineral  'Turquoise'
_chemical_name_common  'Copper hexaaluminium tetrakis(phosphate(V)) octahydroxide tetrahydrate'
_symmetry_space_group_name_H-M 'P -1'
_space_group_IT_number 2
_space_group_crystal_system 'triclinic'
loop_
_symmetry_equiv_pos_as_xyz
   'x, y, z'
   '-x, -y, -z'
_cell_length_a        7.42400
_cell_length_b        7.62900
_cell_length_c        9.91000
_cell_angle_alpha    68.6100
_cell_angle_beta     69.7100
_cell_angle_gamma    65.0800
_cell_formula_units_Z 1
loop_
_atom_site_label
_atom_site_fract_x
_atom_site_fract_y
_atom_site_fract_z
_atom_site_occupancy
_atom_site_B_iso_or_equiv
cu      0.000   0.000   0.000    1.00000    1.000
p      0.350   0.387   0.943    1.00000    1.000
p      0.842   0.387   0.457    1.00000    1.000
al      0.284   0.177   0.752    1.00000    1.000
al      0.752   0.186   0.276    1.00000    1.000
al      0.245   0.502   0.244    1.00000    1.000
o      0.068   0.363   0.384    1.00000    1.000
o      0.806   0.344   0.626    1.00000    1.000
o      0.275   0.355   0.113    1.00000    1.000
o      0.066   0.064   0.197    1.00000    1.000
o      0.237   0.074   0.629    1.00000    1.000
o      0.733   0.086   0.124    1.00000    1.000
o      0.298   0.402   0.606    1.00000    1.000
o      0.325   0.223   0.905    1.00000    1.000
o      0.986   0.281   0.847    1.00000    1.000
o      0.576   0.047   0.685    1.00000    1.000
o      0.787   0.407   0.132    1.00000    1.000
o      0.463   0.295   0.328    1.00000    1.000
o      0.786   0.228   0.432    1.00000    1.000
o      0.578   0.366   0.899    1.00000    1.000
h      0.867   0.033   0.753    1.00000    1.000
h      0.150   0.157   0.150    1.00000    1.000
h      0.633   0.143   0.590    1.00000    1.000
h      0.393   0.083   0.290    1.00000    1.000
h      0.143   0.167   0.593    1.00000    1.000
h      0.650   0.143   0.100    1.00000    1.000
h      0.980   0.350   0.900    1.00000    1.000
h      0.450   0.268   0.423    1.00000    1.000
_cell_measurement_wavelength    1.541874
_cell_measurement_radiation   'x-rays'
_exptl_crystal_density_diffrn    2.927000
_exptl_crystal_density_meas      2.840000
loop_
_pd_peak_d_spacing
_pd_peak_intensity
     8.982897        183.74
     6.686347         88.54
     6.554405         82.81
     6.177653         82.40
     6.165803        476.42
     5.986596        221.98
     5.750896         84.92
     4.804704         49.88
     4.798062        192.89
     4.604971         69.80
     4.491449          3.57
     4.270854          7.63
     4.177095         44.43
     4.118534          4.31
     4.047096         30.08
     3.794826         11.59
     3.709892        134.84
     3.702195         37.13
     3.670221       1000.00
     3.497770         41.54
     3.493626         32.87
     3.436861        427.20
     3.435047         34.46
     3.409085        136.27
     3.363672         32.19
     3.351003        119.37
     3.343174          2.86
     3.333952         13.36
     3.282739        107.01
     3.277203        261.06
     3.151459         30.46
     3.088826         21.11
     3.082902         78.20
     3.039664         66.61
     3.028279         10.99
     2.994648         22.19
     2.994299         15.72
     2.993298          3.78
     2.985355         20.98
     2.981987         41.38
     2.901075        661.72
     2.899118         22.39
     2.896349        283.45
     2.875448         40.24
     2.874351         64.50
     2.873074         13.91
     2.840777         25.05
     2.726414         36.88
     2.639213         17.51
     2.614483          0.37
     2.611655         21.33
     2.584908          4.37
     2.567403         15.07
     2.521255         54.05
     2.515476         17.40
     2.514856         87.73
     2.503332         14.79
     2.491822         14.78
     2.475220         37.03
     2.459554         22.71
     2.456880         18.45
     2.454490          6.89
     2.453150          0.37
     2.431642         40.05
     2.423790         29.10
     2.414817         22.07
     2.403182          9.90
     2.402352         48.64
     2.399031         67.01
     2.394271          3.92
     2.390749          9.75
     2.388756          2.74
     2.367829          9.84
     2.366977          2.83
     2.352553         10.13
     2.348773         10.20
     2.344621         69.25
     2.341360         11.34
     2.320957          4.64
     2.316068         64.09
     2.315139         70.40
     2.306142          6.31
     2.302485        122.09
     2.296722         34.98
     2.294893          6.73
     2.291205          6.89
     2.289665         49.53
     2.254202          3.49
     2.245724          5.25
     2.244017          3.31
     2.238664          3.69
     2.228782         38.14
     2.227231         28.32
     2.225155        103.74
     2.200517          1.35
     2.184802         21.30
     2.183105         59.95
     2.172729          2.26
     2.169507         19.55
     2.135427          1.81
     2.114079         15.77
     2.111975        123.62
     2.098602          0.85
     2.088548          0.43
     2.085639         20.47
     2.061002        156.06
     2.060458          1.00
     2.059267         19.81
     2.059218         11.72
     2.055268         44.71
     2.054577          1.12
     2.043907          5.79
     2.029082          0.07
     2.028076          7.15
     2.023548         50.21
     2.019513        276.12
     1.995532          1.35
     1.995016          8.48
     1.990667          8.56
     1.989554          5.77
     1.980758          1.24
     1.980183          0.09
     1.978098          1.93
     1.975732          1.30
     1.974578          5.74
     1.968034          3.17
     1.967113          2.78
     1.963711          9.24
     1.951815          7.35
     1.941467          0.13
     1.934063          8.17
     1.933428          0.11
     1.931262         16.81
     1.929967          0.32
     1.921609          7.96
     1.916965          3.42
     1.910355          2.98
     1.908629          2.42
     1.904375         83.41
     1.897413         30.82
     1.896301         20.05
     1.894008          1.71
     1.879310          0.52
     1.874568          2.48
     1.872834          6.17
     1.858879          3.66
     1.857204         27.40
     1.857072          7.80
     1.855831          3.71
     1.854946          0.60
     1.851097         64.13
     1.844841          3.00
     1.843473        109.50
     1.841738          2.11
     1.835233          0.80
     1.835111         66.26
     1.831339          0.02
     1.829007          0.42
     1.822373          0.00
     1.819010        139.02
     1.817145          1.88
     1.815231          4.91
     1.812315         15.06
     1.810510         16.68
     1.810036         42.04
     1.808890          7.35
     1.808719          0.24
     1.808502          1.07
     1.807947          0.94
     1.796579          0.09
     1.785385          9.81
     1.783887         65.38
     1.782969          0.67
     1.777049         40.42
     1.776167          7.82
     1.769077          2.74
     1.765066          4.31
     1.763882          4.73
     1.754314          3.96
     1.753442          5.08
     1.751909          3.15
     1.748885          0.37
     1.746813          0.37
     1.744388          1.64
     1.740388          3.33
     1.739642          6.27
     1.732475          8.96
     1.731631          4.42
     1.730444         16.78
     1.725043          2.02
     1.724772          1.42
     1.722803         10.35
     1.722428         39.76
     1.721747          0.00
     1.718430         18.71
     1.717524         18.97
     1.704542          0.38
     1.703769          4.07
     1.701559          4.20
     1.690741          4.41
     1.688795          0.89
     1.687869          4.62
     1.681836          2.56
     1.681304         10.73
     1.675550          5.04
     1.675501         20.42
     1.673296          2.91
     1.671587          5.13
     1.666976         11.51
     1.666312          2.56
     1.665539          4.28
     1.651303          4.24
     1.650866          0.55
     1.641370          0.00
     1.639709          2.25
     1.638601         35.41
     1.638483          0.75
     1.637497          0.73
     1.635358         46.56
     1.633385         24.86
     1.633052          2.42
     1.625589          3.65
     1.624837          1.94
     1.623845          6.82
     1.623678          2.86
     1.622760          2.13
     1.616957          3.70
     1.616339          7.55
     1.611246          5.65
     1.609055          4.69
     1.607743         29.16
     1.603923          1.67
     1.603664         26.55
     1.603075          0.46
     1.601568          3.40
     1.601526          2.80
     1.600841          1.81
     1.599726          0.75
     1.599354          4.51
     1.598375          1.07
     1.595657         22.95
     1.586143          9.32
     1.585856         15.48
     1.582689          4.81
     1.582298          0.88
     1.579443         57.29
     1.575729          2.14
     1.575638          8.33
     1.572308          2.04
     1.572068          5.36
     1.568158         60.42
     1.566467          5.01
     1.562880          6.74
     1.561736          0.89
     1.561462          6.37
     1.552405          1.98
     1.550618          0.10
     1.550118          9.71
     1.548273         48.79
     1.547850          3.84
     1.544413         17.38
     1.544213          1.58
     1.543679          6.12
     1.541451         13.21
     1.540793          5.59
     1.539956         11.60
     1.537899          0.11
     1.535991         11.16
     1.534990          0.01
     1.527450          4.61
     1.527247         25.78
     1.523439          3.28
     1.522965          0.63
     1.519832          0.00
     1.518182          0.02
     1.516574          0.97
     1.514351         15.48
     1.514140          9.77
     1.512508          4.70
     1.508752         74.70
     1.508510          2.38
     1.506509          0.00
     1.502789          2.47
     1.499322          0.04
     1.497324          4.24
     1.497150          6.79
     1.496846          3.82
     1.496649         26.92
     1.492677          2.56
     1.490994          0.37
     1.489351        101.58
     1.486940          3.33
     1.486752          0.03
     1.485618          2.55
     1.485165          4.20
     1.484312          1.17
     1.482582          1.43
     1.482530          0.37
     1.480158         39.04
     1.479712         29.34
     1.477671          7.08
     1.472845         18.66
     1.472834         23.40
     1.471228          9.79
     1.469302          8.31
     1.466001          2.28
     1.463176          0.33
     1.462912         18.05
     1.461769          6.87
     1.458473          2.28
     1.456356          0.87
     1.454538          0.86
     1.452856         10.67
     1.451035          0.73
     1.450537         41.21
     1.449559          0.03
     1.448175          0.71
     1.442466          5.06
     1.440900          0.04
     1.440324          3.78
     1.438266          8.83
     1.437724         23.18
     1.437606          0.96
     1.437175          8.27
     1.436822          0.63
     1.436537          9.92
     1.436119          6.22
     1.427110          6.49
     1.426956         15.21
     1.426612          0.00
     1.425974          2.49
     1.425297         22.89
     1.425155          0.67
     1.423618         40.75
     1.422025         13.59
     1.420389          1.62
     1.419111          0.79
     1.419041         20.05
     1.416744          5.01
     1.414726          4.44
     1.414223          5.69
     1.414045          5.00
     1.413601          2.47
     1.412811          1.43
     1.412107          3.01
     1.410998         30.07
     1.410755          0.19
     1.406600          1.17
     1.399726          4.48
     1.398411          4.55
     1.397638          0.11
     1.395613          4.01
     1.395253          0.72
     1.394578          5.15
     1.393544          1.97
     1.393470          3.42
     1.392365          0.71
     1.392085         13.00
     1.391897          3.86
     1.391546          2.94
     1.390867          4.71
     1.390342          5.46
     1.386950          0.01
     1.385742          3.48
     1.384728          0.16
     1.382515          5.21
     1.382497          0.09
     1.382433          1.21
     1.381484         13.22
     1.379722          4.84
     1.378415          8.15
     1.377640          1.94
     1.377173          0.69
     1.375164          0.95
     1.375143          1.02
     1.372845          3.10
     1.372528         17.54
     1.368935          0.43
     1.367074          1.53
     1.366874          1.59
     1.366715          3.84
     1.365951          3.21
     1.365204          6.55
     1.363915          1.89
     1.363795          1.87
     1.363207          4.95
     1.361615          0.25
     1.359929          0.05
     1.358894          3.76
     1.357854          1.95
     1.355057         12.59
     1.354210          0.91
     1.353159          0.27
     1.351955          1.30
     1.351638         16.58
     1.349032          0.01
     1.347709         43.60
     1.347128          6.89
     1.346533          6.10
     1.346078         32.82
     1.345818          2.44
     1.343733          0.87
     1.341723          0.33
     1.339837          0.18
     1.337269         13.26
     1.336893         11.27
     1.334551          0.16
     1.334010          0.29
     1.333937          0.86
     1.333366         22.44
     1.332043          5.69
     1.331577          1.42
     1.331269         18.11
     1.330770          4.60
     1.330440          0.80
     1.330285         10.52
     1.328653          0.68
     1.326906          0.71
     1.326425          8.35
     1.325777          2.64
     1.324869          0.14
     1.324699          4.48
     1.323411          6.96
     1.322091          0.82
     1.319606         14.25
     1.319535          2.51
     1.317479          8.27
     1.317448          3.57
     1.316529          0.97
     1.316262          1.83
     1.310881          1.56
     1.308991          1.01
     1.307241          2.43
     1.306700          1.39
     1.305957          4.22
     1.305827         14.05
     1.305643          0.62
     1.305223          3.48
     1.305160          0.01
     1.305038          1.43
     1.303489          1.04
     1.300122          2.78
     1.297482          0.94
     1.297151          0.96
     1.297040          0.54
     1.296701          0.00
     1.292454          0.05
     1.292197          5.15
     1.290892          0.05
     1.286933          2.70
     1.285277          3.63
     1.283701          6.43
     1.283271          1.47
     1.281860          0.17
     1.280867          0.46
     1.279127          4.08
     1.278769          4.33
     1.275804          0.61
     1.275716          0.93
     1.274076          6.89
     1.269688          6.00
     1.267381         27.79
     1.266477          0.28
     1.265581          0.15
     1.265051          0.03
     1.264942          8.54
     1.264202          2.70
     1.263449          3.95
     1.262198          0.01
     1.262153          0.58
     1.261034          0.00
     1.260867         15.04
     1.260628         31.42
     1.260165          0.32
     1.258243          0.00
     1.257738          0.85
     1.257428         50.34
     1.257101          0.73
     1.256729          2.47
     1.256182          0.42
     1.255978          2.71
     1.255602          7.89
     1.254402          0.48
     1.254168          5.31
     1.254091          0.00
     1.253050         15.05
     1.252870          0.14
     1.252298          1.85
     1.251666          7.04
     1.250931          2.73
     1.250615          0.34
     1.250500          0.09
     1.247830          1.94
     1.245911          0.00
     1.244388          2.45
     1.244174          0.02
     1.242032          0.11
     1.237610          7.28
     1.236911          0.48
##############################################################################
###                            Comments                                    ###
##############################################################################
###   Diffraction pattern calculated by Match!. 
###   I/Ic calculated by Match!. 
###   Space group has been derived from given symmetry operations. 
##############################################################################


