##############################################################################
###               Crystal structure data exported by Match!                ###
##############################################################################
###                           Data published by:                           ###
###                                                                        ###
###               COD (Crystallography Open Database)
##############################################################################
data_4100397
_citation_journal_full    'Journal of the American Chemical Society'
_citation_year  '2005'
_chemical_formula_sum  'Cl2 Cu3.67 H6 O6 Zn0.33'
_chemical_name_common  'zincian paratacamite, syn'
_symmetry_space_group_name_H-M 'R -3 m'
_space_group_IT_number 166
_space_group_crystal_system 'trigonal (hexagonal axes)'
loop_
_symmetry_equiv_pos_as_xyz
   'x, y, z'
   'x+0.66667, y+0.33333, z+0.33333'
   'x+0.33333, y+0.66667, z+0.66667'
   '-y, x-y, z'
   '-y+0.66667, x-y+0.33333, z+0.33333'
   '-y+0.33333, x-y+0.66667, z+0.66667'
   '-x+y, -x, z'
   '-x+y+0.66667, -x+0.33333, z+0.33333'
   '-x+y+0.33333, -x+0.66667, z+0.66667'
   'x-y, -y, -z'
   'x-y+0.66667, -y+0.33333, -z+0.33333'
   'x-y+0.33333, -y+0.66667, -z+0.66667'
   '-x, -x+y, -z'
   '-x+0.66667, -x+y+0.33333, -z+0.33333'
   '-x+0.33333, -x+y+0.66667, -z+0.66667'
   'y, x, -z'
   'y+0.66667, x+0.33333, -z+0.33333'
   'y+0.33333, x+0.66667, -z+0.66667'
   '-x, -y, -z'
   '-x+0.66667, -y+0.33333, -z+0.33333'
   '-x+0.33333, -y+0.66667, -z+0.66667'
   'y, -x+y, -z'
   'y+0.66667, -x+y+0.33333, -z+0.33333'
   'y+0.33333, -x+y+0.66667, -z+0.66667'
   'x-y, x, -z'
   'x-y+0.66667, x+0.33333, -z+0.33333'
   'x-y+0.33333, x+0.66667, -z+0.66667'
   '-x+y, y, z'
   '-x+y+0.66667, y+0.33333, z+0.33333'
   '-x+y+0.33333, y+0.66667, z+0.66667'
   'x, x-y, z'
   'x+0.66667, x-y+0.33333, z+0.33333'
   'x+0.33333, x-y+0.66667, z+0.66667'
   '-y, -x, z'
   '-y+0.66667, -x+0.33333, z+0.33333'
   '-y+0.33333, -x+0.66667, z+0.66667'
_cell_length_a        6.82930
_cell_length_b        6.82930
_cell_length_c       14.02400
_cell_angle_alpha    90.0000
_cell_angle_beta     90.0000
_cell_angle_gamma   120.0000
_cell_formula_units_Z 3
loop_
_atom_site_label
_atom_site_fract_x
_atom_site_fract_y
_atom_site_fract_z
_atom_site_occupancy
_atom_site_B_iso_or_equiv
zn      0.000   0.000   0.000    0.30000    0.568
cu      0.000   0.000   0.000    0.70000    0.568
cu      0.333   0.167   0.167    1.00000    0.663
o      0.127   0.254   0.105    1.00000    1.042
h      0.192   0.384   0.084    1.00000    3.158
cl      0.000   0.000   0.306    1.00000    0.797
_cell_measurement_wavelength    1.541874
_cell_measurement_radiation   'x-rays'
_cell_measurement_temperature    150.000000
_exptl_crystal_density_diffrn    3.761000
loop_
_pd_peak_d_spacing
_pd_peak_intensity
     5.449550       1000.00
     4.674667        158.10
     4.520930         22.96
     3.414650         51.09
     3.015913         17.69
     2.893544        227.33
     2.757366        783.80
     2.724775        171.29
     2.534262          4.51
     2.337333        106.64
     2.260465        635.92
     2.207544         43.13
     2.129803          1.56
     2.035029         93.37
     1.971449          1.84
     1.928757         12.46
     1.897519        104.45
     1.884879          1.39
     1.816517        234.78
     1.748123         35.69
     1.707325        275.53
     1.680727          4.76
     1.658629         37.85
     1.629238         56.73
     1.603711         25.59
     1.597223         15.18
     1.558222          1.64
     1.507957         74.05
     1.506977         13.76
     1.491935        108.75
     1.485768          1.10
     1.470437         33.28
     1.446772         46.26
     1.417596         31.01
     1.415969         11.22
     1.379434         17.93
     1.378683        138.78
     1.364563          6.97
     1.362387         78.55
     1.350538         40.39
     1.332134          1.58
     1.307971         20.90
     1.290616          5.75
     1.269192         30.91
     1.267131         64.21
     1.265388          1.76
     1.246282          8.21
     1.244073         87.18
     1.222474         12.52
     1.221430          0.39
     1.197746          1.75
     1.189671          4.13
     1.187973          1.10
     1.178684          1.49
     1.170742         23.20
     1.168667          8.30
     1.166390          0.00
     1.150939          9.88
     1.138217          5.85
     1.130232         16.10
     1.129820          2.67
     1.123439         24.33
     1.120799          0.09
     1.114174         14.64
     1.107458          8.79
     1.105907         22.72
     1.105701          0.67
     1.103772         36.07
     1.089910          2.89
     1.072983          0.71
     1.065940          3.63
     1.064902         47.21
     1.061260         10.14
     1.059214          8.39
     1.050265          4.25
     1.038301         28.56
     1.023329          0.01
     1.018581         15.90
     1.017515         28.97
     1.016612          1.27
     1.013442          0.08
     1.006624          3.33
##############################################################################
###                            Comments                                    ###
##############################################################################
###   Diffraction pattern calculated by Match!. 
###   I/Ic calculated by Match!. 
##############################################################################


