##############################################################################
###               Crystal structure data exported by Match!                ###
##############################################################################
###                           Data published by:                           ###
###                                                                        ###
###               COD (Crystallography Open Database)
##############################################################################
data_9007015
_citation_journal_full    'Physics and Chemistry of Minerals'
_citation_journal_volume  '28'
_citation_page_first  '545'
_citation_page_last   '556'
_citation_year  '2001'
_citation_title  'AFM observations and simulations of jarosite growth at the molecular scale:probing the basis for the incorporation of foreign ions into jarositeas a storage mineral'
loop_
_publ_author_name
  'Becker U.'
  'Gasharova B.'
_chemical_formula_sum  'Fe2.88 H5.83 K0.81 O13.64 S2'
_chemical_name_mineral  'Jarosite'
_symmetry_space_group_name_H-M 'R -3 m'
_space_group_IT_number 166
_space_group_crystal_system 'trigonal (hexagonal axes)'
loop_
_symmetry_equiv_pos_as_xyz
   'x, y, z'
   'x+0.66667, y+0.33333, z+0.33333'
   'x+0.33333, y+0.66667, z+0.66667'
   '-y, x-y, z'
   '-y+0.66667, x-y+0.33333, z+0.33333'
   '-y+0.33333, x-y+0.66667, z+0.66667'
   '-x+y, -x, z'
   '-x+y+0.66667, -x+0.33333, z+0.33333'
   '-x+y+0.33333, -x+0.66667, z+0.66667'
   'x-y, -y, -z'
   'x-y+0.66667, -y+0.33333, -z+0.33333'
   'x-y+0.33333, -y+0.66667, -z+0.66667'
   '-x, -x+y, -z'
   '-x+0.66667, -x+y+0.33333, -z+0.33333'
   '-x+0.33333, -x+y+0.66667, -z+0.66667'
   'y, x, -z'
   'y+0.66667, x+0.33333, -z+0.33333'
   'y+0.33333, x+0.66667, -z+0.66667'
   '-x, -y, -z'
   '-x+0.66667, -y+0.33333, -z+0.33333'
   '-x+0.33333, -y+0.66667, -z+0.66667'
   'y, -x+y, -z'
   'y+0.66667, -x+y+0.33333, -z+0.33333'
   'y+0.33333, -x+y+0.66667, -z+0.66667'
   'x-y, x, -z'
   'x-y+0.66667, x+0.33333, -z+0.33333'
   'x-y+0.33333, x+0.66667, -z+0.66667'
   '-x+y, y, z'
   '-x+y+0.66667, y+0.33333, z+0.33333'
   '-x+y+0.33333, y+0.66667, z+0.66667'
   'x, x-y, z'
   'x+0.66667, x-y+0.33333, z+0.33333'
   'x+0.33333, x-y+0.66667, z+0.66667'
   '-y, -x, z'
   '-y+0.66667, -x+0.33333, z+0.33333'
   '-y+0.33333, -x+0.66667, z+0.66667'
_cell_length_a        7.31100
_cell_length_b        7.31100
_cell_length_c       17.17500
_cell_angle_alpha    90.0000
_cell_angle_beta     90.0000
_cell_angle_gamma   120.0000
loop_
_atom_site_label
_atom_site_fract_x
_atom_site_fract_y
_atom_site_fract_z
_atom_site_occupancy
_atom_site_B_iso_or_equiv
k      0.000   0.000   0.000    0.81000    1.000
o      0.000   0.000   0.000    0.19000    1.000
fe      0.000   0.500   0.500    0.96000    1.000
s      0.000   0.000   0.309    1.00000    1.000
o      0.000   0.000   0.394    1.00000    1.000
o      0.223   0.777   0.946    1.00000    1.000
o      0.127   0.873   0.135    0.94000    1.000
h      0.168   0.833   0.117    0.94000    1.000
_cell_measurement_wavelength    1.541874
_cell_measurement_radiation   'x-rays'
_exptl_crystal_density_diffrn    3.012000
loop_
_pd_peak_d_spacing
_pd_peak_intensity
     5.940695        263.51
     5.725000        189.24
     5.096120        610.73
     3.655500        104.81
     3.553660         27.86
     3.113310        653.22
     3.080998       1000.00
     3.019282         10.35
     2.970347        113.42
     2.862500        179.29
     2.548060        205.36
     2.370189         21.28
     2.327901         10.86
     2.305250         16.65
     2.287798        309.28
     2.253732          0.86
     2.110504          1.35
     2.090347          0.22
     2.033173          3.56
     1.980232        301.44
     1.963553          9.94
     1.939307         87.07
     1.908333         51.47
     1.827750        311.63
     1.776830         56.59
     1.746938          1.82
     1.741168         44.35
     1.720443         32.05
     1.713152         24.61
     1.698707          0.30
     1.691688         19.09
     1.657597          1.99
     1.625367         32.77
     1.598050         41.65
     1.576198         34.15
     1.563574         40.85
     1.556655         58.42
     1.540499        154.37
     1.515949          1.32
     1.509641        192.14
     1.485174         56.81
     1.447381         16.75
     1.437588         23.58
     1.432205         24.90
     1.431250          1.76
     1.427990         28.55
     1.415488         30.87
     1.400312         29.70
     1.395335          0.00
     1.381649          7.75
     1.375947          7.01
     1.359256          2.43
     1.343090         82.93
     1.337850          0.36
     1.332738          2.03
     1.330105         21.42
     1.319983         27.75
     1.307651          0.18
     1.293298         15.28
     1.274030          5.11
     1.262874          0.11
     1.252756          0.78
     1.249932         57.57
     1.244288          1.61
     1.227857         12.98
     1.219241          1.81
     1.218500         20.50
     1.214583          0.04
     1.204386          0.17
     1.203057          0.80
     1.193650         26.14
     1.191804         23.94
     1.188139          0.11
     1.185095         11.84
     1.184553          7.48
     1.166834          0.59
     1.163950         30.10
     1.156603         34.68
     1.152625         35.98
     1.145000          0.61
     1.143899          7.12
     1.134689          0.21
     1.129951         37.26
     1.127332          6.90
     1.126866         19.28
     1.125273          2.68
     1.121150          0.08
     1.119125          9.99
     1.111579         18.11
     1.109085          0.65
     1.099274          2.44
     1.092653          1.92
     1.091696         10.19
     1.090706          4.10
     1.079553          9.06
     1.075471          1.26
     1.063497          0.00
     1.058335          0.01
     1.055733         24.01
     1.055252         18.54
     1.045173         15.14
     1.038988          0.29
     1.037770          5.97
     1.033331          3.72
     1.031745          5.32
     1.026999          0.20
     1.019224          0.00
     1.016587         23.33
     1.014280          0.90
     1.013853          1.35
     1.011594          0.06
     1.006427          1.52
##############################################################################
###                            Comments                                    ###
##############################################################################
###   Diffraction pattern calculated by Match!. 
###   I/Ic calculated by Match!. 
##############################################################################


