##############################################################################
###               Crystal structure data exported by Match!                ###
##############################################################################
###                           Data published by:                           ###
###                                                                        ###
###               COD (Crystallography Open Database)
##############################################################################
data_4124066
_citation_journal_full    'Journal of the American Chemical Society'
_citation_journal_volume  '126'
_citation_page_first  '9769'
_citation_page_last   '9775'
_citation_year  '2004'
_citation_title  'Chemical evaluation of hypothetical uninodal zeolites'
loop_
_publ_author_name
  'Foster M.D.'
  'Friedrichs O.D.'
  'Bell R.G.'
  'Klinowski J.'
  'Paz F.A.A.'
_chemical_formula_sum  'O2 Si'
_chemical_name_common  'Silica'
_symmetry_space_group_name_H-M 'I 41 2 2'
_space_group_IT_number 98
_space_group_crystal_system 'tetragonal'
loop_
_symmetry_equiv_pos_as_xyz
   'x, y, z'
   'x+0.5, y+0.5, z+0.5'
   '-y, x+0.5, z+0.25'
   '-y+0.5, x, z+0.75'
   '-x, -y, z'
   '-x+0.5, -y+0.5, z+0.5'
   'y, -x+0.5, z+0.25'
   'y+0.5, -x, z+0.75'
   'x, -y+0.5, -z+0.25'
   'x+0.5, -y, -z+0.75'
   '-x, y+0.5, -z+0.25'
   '-x+0.5, y, -z+0.75'
   'y, x, -z'
   'y+0.5, x+0.5, -z+0.5'
   '-y, -x, -z'
   '-y+0.5, -x+0.5, -z+0.5'
_cell_length_a        5.63083
_cell_length_b        5.63083
_cell_length_c       22.11857
_cell_angle_alpha    90.0000
_cell_angle_beta     90.0000
_cell_angle_gamma    90.0000
_cell_formula_units_Z 16
loop_
_atom_site_label
_atom_site_fract_x
_atom_site_fract_y
_atom_site_fract_z
_atom_site_occupancy
_atom_site_B_iso_or_equiv
si      0.371   0.749   0.312    1.00000    1.000
o      0.250   0.790   0.375    1.00000    1.000
o      0.286   0.786   0.750    1.00000    1.000
o      0.500   0.000   0.302    1.00000    1.000
o      0.500   0.500   0.319    1.00000    1.000
_cell_measurement_wavelength    1.541874
_cell_measurement_radiation   'x-rays'
_exptl_crystal_density_diffrn    2.276000
loop_
_pd_peak_d_spacing
_pd_peak_intensity
     5.529643          2.07
     5.456783        146.71
     4.475012        508.12
     3.981598       1000.00
     3.746208          3.07
     3.478600        280.53
     3.231133          0.08
     2.815415         48.55
     2.764821         89.92
     2.755577         22.71
     2.728392         38.21
     2.705036          9.09
     2.508934          0.27
     2.502021         17.79
     2.383021         50.79
     2.270989          6.88
     2.252427          9.80
     2.237506         27.13
     2.188450        157.12
     1.990799         75.75
     1.972668         28.58
     1.969302          9.27
     1.959307          0.25
     1.933540          2.63
     1.893660         66.34
     1.873104          0.02
     1.870222          0.02
     1.843214          0.49
     1.818928          1.62
     1.780625         18.96
     1.758821         10.83
     1.757984         36.28
     1.751689          0.26
     1.739300          9.44
     1.727849         12.43
     1.694916          0.07
     1.672675          0.21
     1.628700          4.97
     1.615566          0.42
     1.613716          0.21
     1.603379         36.70
     1.571301         43.38
     1.557833         10.05
     1.542120          0.02
     1.527813         32.88
     1.497025         11.45
     1.491671          0.81
     1.479707          0.12
     1.472637         70.03
     1.468513          2.76
     1.426470          0.97
     1.409797         12.14
     1.407707         11.39
     1.400045          6.32
     1.396440         15.76
     1.387020         19.39
     1.382411         27.18
     1.377789          4.34
     1.372076          1.97
     1.364196          0.00
     1.363081          3.46
     1.352518          0.19
     1.342835         18.26
     1.327199          2.02
     1.318097          5.81
     1.317744          0.34
     1.315087         18.11
     1.305936         37.39
     1.304909         18.06
     1.290547          0.05
     1.280647          0.03
     1.272463          1.07
     1.267691          0.47
     1.260586          0.58
     1.259092          9.89
     1.254467          0.20
     1.253600          1.96
     1.251010          5.59
     1.248736          0.85
     1.240893          9.59
     1.237547          0.03
     1.233402         44.39
     1.227669          0.19
     1.196486         17.95
     1.193748          1.55
     1.191511          7.35
     1.187589         10.27
     1.181779         12.44
     1.174163          0.59
     1.159533          0.02
     1.155918          2.90
     1.150525          6.15
     1.145867         42.29
     1.140026          5.28
     1.138045          0.02
     1.135494          7.16
     1.129746         15.61
     1.126213          1.40
     1.124709          0.44
     1.118753          0.11
     1.113254          1.86
     1.105929          0.11
     1.104297          0.49
     1.098832          6.86
     1.094225          4.60
     1.091957          3.70
     1.091357          4.85
     1.082913          0.06
     1.077044          0.01
     1.072162          1.37
     1.069303          0.40
     1.065587          0.09
     1.065029          2.88
     1.060805          0.10
     1.057853         10.93
     1.056685          3.94
     1.051025          6.95
     1.045657          0.01
     1.044452          2.44
     1.039677          0.08
     1.035309          1.11
     1.035260         16.34
     1.029360          0.00
     1.025522          1.40
     1.023796          0.43
     1.017579          7.87
     1.016216          0.25
     1.011361          4.64
##############################################################################
###                            Comments                                    ###
##############################################################################
###   Diffraction pattern calculated by Match!. 
###   I/Ic calculated by Match!. 
###   Space group has been derived from given symmetry operations. 
##############################################################################


