##############################################################################
###               Crystal structure data exported by Match!                ###
##############################################################################
###                           Data published by:                           ###
###                                                                        ###
###               COD (Crystallography Open Database)
##############################################################################
data_9013579
_citation_journal_full    'American Mineralogist'
_citation_journal_volume  '94'
_citation_page_first  '451'
_citation_page_last   '460'
_citation_year  '2009'
_citation_title  'Molecular conformation and anion configuration variations for As4S4 andAs4Se4 in an anion-substituted solid solution Locality: synthetic Note:S1Se1-14'
loop_
_publ_author_name
  'Kyono A.'
_chemical_formula_sum  'As S0.84 Se0.16'
_chemical_name_mineral  'Realgar'
_symmetry_space_group_name_H-M 'P 1 21/n 1'
_space_group_IT_number 14
_space_group_crystal_system 'monoclinic'
loop_
_symmetry_equiv_pos_as_xyz
   'x, y, z'
   '-x+0.5, y+0.5, -z+0.5'
   '-x, -y, -z'
   'x+0.5, -y+0.5, z+0.5'
_cell_length_a        9.38740
_cell_length_b       13.60020
_cell_length_c        6.62330
_cell_angle_alpha    90.0000
_cell_angle_beta    106.4440
_cell_angle_gamma    90.0000
loop_
_atom_site_label
_atom_site_fract_x
_atom_site_fract_y
_atom_site_fract_z
_atom_site_occupancy
_atom_site_B_iso_or_equiv
as      0.121   -0.020   0.762    1.00000    2.037
as      0.424   0.140   0.857    1.00000    1.958
as      0.322   0.128   0.177    1.00000    2.013
as      0.041   0.161   0.713    1.00000    2.179
s      0.345   -0.007   0.699    0.81200    2.487
se      0.345   -0.007   0.699    0.18800    2.487
s      0.214   -0.024   0.119    0.80700    2.368
se      0.214   -0.024   0.119    0.19300    2.368
s      0.239   0.227   0.639    0.88900    2.629
se      0.239   0.227   0.639    0.11100    2.629
s      0.107   0.213   0.053    0.85200    2.479
se      0.107   0.213   0.053    0.14800    2.479
_cell_measurement_wavelength    1.541874
_cell_measurement_radiation   'x-rays'
_exptl_crystal_density_diffrn    3.751000
loop_
_pd_peak_d_spacing
_pd_peak_intensity
     7.507410         68.70
     6.800100         71.37
     6.061307        399.96
     5.755513        486.33
     5.536355        259.24
     5.426299       1000.00
     4.642029        106.84
     4.611836         36.92
     4.524731         12.04
     4.501713          7.84
     4.367557          0.01
     4.273678         28.46
     4.091529        189.95
     4.049080         23.15
     3.816839         35.23
     3.753705         93.28
     3.690083         54.77
     3.630333          6.01
     3.628474         83.63
     3.400050          0.21
     3.232972         16.44
     3.209642         35.01
     3.194336        341.59
     3.180797        319.50
     3.176193        434.49
     3.172909         14.73
     3.116092         11.64
     3.092966         86.79
     3.069869        376.77
     3.030654          3.64
     2.997668        193.00
     2.994530         85.70
     2.971016        236.11
     2.965371          0.05
     2.958098        173.89
     2.941810        507.45
     2.930637         17.95
     2.877756        116.20
     2.797965        153.67
     2.768178         20.24
     2.745634        137.57
     2.736704        473.38
     2.713149        127.12
     2.705012        177.30
     2.669547          0.34
     2.664714         72.62
     2.648300         10.44
     2.603808        169.98
     2.601280         38.92
     2.557506         12.26
     2.541900         32.21
     2.530513        147.23
     2.519503          6.72
     2.502470        126.35
     2.500455          1.11
     2.481618        165.29
     2.458071         89.06
     2.418881         62.24
     2.408528         94.26
     2.369119         76.40
     2.357562          1.56
     2.354230         16.21
     2.342897          0.06
     2.328066         11.29
     2.321015          3.62
     2.311679         33.99
     2.306497          1.10
     2.305918         14.20
     2.297249          0.17
     2.278539          0.00
     2.273472          1.47
     2.266700        148.70
     2.262366          0.85
     2.250856         22.12
     2.250009         51.34
     2.239340         96.84
     2.220649         23.95
     2.212998         23.71
     2.205019        135.54
     2.198109        101.71
     2.183778         37.26
     2.176597         67.32
     2.160867          1.79
     2.145141        102.74
     2.142932          3.82
     2.139850        124.00
     2.136839         48.09
     2.134860          5.52
     2.123101         45.24
     2.118945         39.53
     2.099690          0.43
     2.097502          0.36
     2.092255         26.22
     2.089304          0.56
     2.079619          1.38
     2.065983          0.03
     2.064558         52.42
     2.055315          4.87
     2.052990         16.06
     2.045765         45.80
     2.035856          4.64
     2.034270          4.52
     2.024540         23.96
     2.024295          0.23
     2.021715          1.37
     2.020436         26.55
     2.016038          2.72
     2.015429         19.74
     2.004175         11.53
     1.998503         12.02
     1.992017         51.09
     1.982903         21.40
     1.954999          7.86
     1.942330          2.52
     1.939019          0.42
     1.937387         38.93
     1.936756          5.87
     1.934687          0.25
     1.927829          3.34
     1.922819         20.73
     1.918504          4.71
     1.908420          9.81
     1.907089          4.85
     1.899169         11.00
     1.878506         21.88
     1.877480         18.54
     1.876852          8.32
     1.870160          1.83
     1.868931         50.71
     1.867637        105.65
     1.861595        136.40
     1.859842         25.72
     1.857928          9.00
     1.853213         15.90
     1.850162          2.78
     1.850030          4.81
     1.845452          4.50
     1.845042         85.76
     1.827306          0.17
     1.823720          0.04
     1.823488        125.74
     1.815167          4.98
     1.814237         19.50
     1.809768        137.33
     1.808766         15.02
     1.804714         10.14
     1.797400         33.04
     1.794850         84.51
     1.790485          5.32
     1.785362         27.57
     1.785107          3.03
     1.784721          2.48
     1.783840          0.26
     1.774081         53.09
     1.772749         18.27
     1.769862         13.86
     1.758920         18.72
     1.758855          0.72
     1.751717         21.90
     1.740690         18.71
     1.740332          6.85
     1.736910         59.88
     1.734608         23.56
     1.734113          3.90
     1.722147         15.54
     1.712890        125.20
     1.701554         66.36
     1.700025         50.40
     1.694807          6.79
     1.694524          0.90
     1.689625         53.97
     1.686533        135.89
     1.684365         34.80
     1.682163         97.21
     1.675889          3.46
     1.674644          5.75
     1.673503          3.44
     1.673185         29.66
     1.670865         33.29
     1.670507         19.01
     1.669361          0.05
     1.666352         33.95
     1.657393          5.60
     1.651470         31.41
     1.643554         65.04
     1.642233          2.79
     1.641717         18.13
     1.639427          4.81
     1.636862          5.85
     1.635636         20.11
     1.633757          6.80
     1.631475          9.14
     1.630948         19.68
     1.628231         40.35
     1.621940          0.01
     1.621298          0.08
     1.619861          0.92
     1.616516          5.35
     1.616486         11.39
     1.615944          1.08
     1.605217         44.71
     1.605139         18.25
     1.604821          2.43
     1.604656         14.18
     1.599501          0.02
     1.597168          6.30
     1.595103          1.30
     1.592834          0.87
     1.591296          7.24
     1.591023          1.56
     1.590399          8.54
     1.588755          5.93
     1.588097          0.41
     1.587265         17.85
     1.586454         57.93
     1.580691          0.01
     1.580540         30.86
     1.580469          0.14
     1.577379          6.02
     1.572690         17.96
     1.572163          5.06
     1.571918          0.01
     1.566300         16.24
     1.561039          7.61
     1.558046         25.63
     1.552488          0.03
     1.551715          0.00
     1.551045         27.48
     1.547343          1.68
     1.546904          2.42
     1.546483          5.99
     1.546213          8.42
     1.545143          6.78
     1.537279          4.66
     1.535093          4.65
     1.534934          0.51
     1.527551          0.00
     1.525251         23.51
     1.524243         15.37
     1.523005         51.55
     1.522613          5.09
     1.522134          2.35
     1.515327         47.49
     1.513094          0.12
     1.512032          5.13
     1.511556          3.16
     1.508244         21.06
     1.507668         48.38
     1.506008         27.57
     1.501482          0.96
     1.501252          6.12
     1.500571          1.18
     1.499441          6.44
     1.498834         20.12
     1.498793          5.50
     1.497265          1.74
     1.494903          3.43
     1.491520          0.21
     1.490288          4.15
     1.487210          5.87
     1.485798         14.79
     1.485508         17.93
     1.484390         33.38
     1.482685          0.24
     1.481285          0.11
     1.480241          3.06
     1.479191          7.30
     1.479049         10.98
     1.477391         39.89
     1.474905          1.64
     1.470905         68.10
     1.470755          0.95
     1.470110          2.04
     1.467770          0.05
     1.466253          1.76
     1.465318          6.76
     1.463434          8.51
     1.459914         48.94
     1.459492         18.59
     1.458556         10.29
     1.457741          6.51
     1.455852          0.33
     1.453861         14.95
     1.450580         22.00
     1.447497          6.15
     1.446546         13.95
     1.445901          1.07
     1.440037          0.76
     1.438878          7.11
     1.437166          2.18
     1.436011          1.96
     1.432575         40.61
     1.431573         19.60
     1.425305          1.27
     1.424559          0.03
     1.422253          0.71
     1.419910          3.85
     1.419538          0.08
     1.418805          9.22
     1.418343         12.01
     1.411652         16.33
     1.409936          1.14
     1.409746         11.38
     1.408027          3.72
     1.400757          0.29
     1.400441          2.76
     1.399481          5.57
     1.399103          3.40
     1.398982          1.82
     1.398204         10.74
     1.397639         11.40
     1.397084          5.60
     1.389634          0.13
     1.389270          0.06
     1.384089          1.63
     1.381577          0.18
     1.380079          0.13
     1.378291          0.65
     1.377938          0.20
     1.376011         27.74
     1.375481          1.60
     1.375454          2.09
     1.374146         28.98
     1.373631          2.58
     1.373028          8.15
     1.372817          0.59
     1.371456          5.61
     1.371222          0.35
     1.368851          3.56
     1.368352          5.07
     1.367862          0.48
     1.367251          0.91
     1.364566          2.64
     1.363843          1.71
     1.360020          1.41
     1.356575          5.63
     1.355777          0.14
     1.355059          0.30
     1.355001          0.11
     1.352506          2.67
     1.352346         11.74
     1.350109          1.21
     1.349693          0.27
     1.348513          2.94
     1.346342          2.21
     1.344764          0.52
     1.342094          2.28
     1.341602          0.36
     1.338326          0.01
     1.337508          1.51
     1.336779         14.01
     1.336346          5.16
     1.335320          3.28
     1.334774          0.56
     1.332357         29.89
     1.331708          0.01
     1.329941          0.01
     1.329883         12.89
     1.328571          4.67
     1.327025          4.03
     1.325645          5.40
     1.325487          0.02
     1.324150          0.26
     1.324040          2.69
     1.323767         10.82
     1.320690          0.39
     1.320534          0.15
     1.320257          1.15
     1.318420         10.35
     1.318234          1.19
     1.316542         20.19
     1.316115          1.20
     1.315806          0.05
     1.313895          0.07
     1.311266          0.51
     1.310720          0.00
     1.310382          2.26
     1.309264          4.87
     1.309013          0.07
     1.305608          2.67
     1.304675          0.04
     1.304480          4.84
     1.304342          2.20
     1.304258          0.00
     1.303350          1.37
     1.301904          4.87
     1.300810          1.29
     1.300640          3.02
     1.300219          8.98
     1.298564          0.90
     1.298119          0.00
     1.296440          3.75
     1.294574          0.27
     1.287744          0.14
     1.287326          4.73
     1.287029          2.19
     1.286710          1.99
     1.286580          4.21
     1.282717         10.12
     1.282010         13.48
     1.281815          1.23
     1.280490          0.10
     1.279240          0.54
     1.278753          0.01
     1.276529          2.63
     1.275377          0.04
     1.274576          0.63
     1.272280          1.38
     1.271491          4.44
     1.270950          2.35
     1.270379          4.98
     1.269504          1.44
     1.265805          0.14
     1.265577         10.14
     1.265257          0.02
     1.264970          1.33
     1.264872          0.31
     1.264199          0.88
     1.263914          0.87
     1.263796          9.20
     1.260178          0.06
     1.259751          9.18
     1.259148          0.22
     1.258848          1.84
     1.258314          0.87
     1.258161          0.51
     1.257583          0.15
     1.255745          1.14
     1.255341          0.31
     1.254615          0.04
     1.251235          0.10
     1.250227          1.26
     1.249452          2.26
     1.249402          0.40
     1.248868          1.31
     1.248774          1.30
     1.248359          2.39
     1.247964          9.15
     1.247017          0.48
     1.246507          1.35
     1.243730          0.74
     1.243457          1.88
     1.242646          1.28
     1.242609          3.72
     1.242385          0.44
     1.242315         15.75
     1.240809          0.00
     1.239486          0.31
     1.238899          0.33
     1.238759          1.06
     1.238737          9.45
     1.237366          2.85
     1.236874          0.12
     1.236154          8.03
     1.236026          1.22
     1.235384          0.81
     1.234292          0.05
     1.230728          6.96
     1.230028          0.46
     1.229596          0.01
     1.229036          5.56
     1.227718          2.47
     1.224886          3.41
     1.224048          0.16
     1.223894         11.44
     1.223345          0.00
     1.223257          0.12
     1.222991         16.88
     1.222717          3.71
     1.219964          1.03
     1.217737          1.97
     1.217695          0.39
     1.217184          0.26
     1.214660          8.26
     1.213609          4.06
     1.212745          0.34
     1.212261          0.02
     1.211461          0.02
     1.211436          3.39
     1.210111         10.12
     1.209491          1.34
     1.209440          1.19
     1.207952          0.61
     1.207474          6.74
     1.206683          0.01
     1.205550          6.95
     1.204419          4.23
     1.204264          1.64
     1.203004          0.11
     1.202639          2.58
     1.199411          3.58
     1.196466          0.09
     1.195504          6.11
     1.195077          1.43
     1.194876          0.08
     1.194245          0.06
     1.194211          4.58
     1.193907          1.22
     1.193898         10.76
     1.193446          0.31
##############################################################################
###                            Comments                                    ###
##############################################################################
###   Diffraction pattern calculated by Match!. 
###   I/Ic calculated by Match!. 
##############################################################################


