##############################################################################
###               Crystal structure data exported by Match!                ###
##############################################################################
###                           Data published by:                           ###
###                                                                        ###
###               COD (Crystallography Open Database)
##############################################################################
data_4124038
_citation_journal_full    'Journal of the American Chemical Society'
_citation_journal_volume  '126'
_citation_page_first  '9769'
_citation_page_last   '9775'
_citation_year  '2004'
_citation_title  'Chemical evaluation of hypothetical uninodal zeolites'
loop_
_publ_author_name
  'Foster M.D.'
  'Bell R.G.'
  'Friedrichs O.D.'
  'Klinowski J.'
  'Paz F.A.A.'
_chemical_formula_sum  'O2 Si'
_chemical_name_common  'Silica'
_symmetry_space_group_name_H-M 'P m -3 n'
_space_group_IT_number 223
_space_group_crystal_system 'cubic'
loop_
_symmetry_equiv_pos_as_xyz
   'x, y, z'
   '-y+0.5, x+0.5, z+0.5'
   '-x, -y, z'
   'y+0.5, -x+0.5, z+0.5'
   'x+0.5, -z+0.5, y+0.5'
   'x, -y, -z'
   'x+0.5, z+0.5, -y+0.5'
   'z+0.5, y+0.5, -x+0.5'
   '-x, y, -z'
   '-z+0.5, y+0.5, x+0.5'
   'z, x, y'
   'y, z, x'
   '-y, -z, x'
   'z, -x, -y'
   '-y, z, -x'
   '-z, -x, y'
   '-z, x, -y'
   'y, -z, -x'
   'y+0.5, x+0.5, -z+0.5'
   '-y+0.5, -x+0.5, -z+0.5'
   '-x+0.5, z+0.5, y+0.5'
   '-x+0.5, -z+0.5, -y+0.5'
   'z+0.5, -y+0.5, x+0.5'
   '-z+0.5, -y+0.5, -x+0.5'
   '-x, -y, -z'
   'y+0.5, -x+0.5, -z+0.5'
   'x, y, -z'
   '-y+0.5, x+0.5, -z+0.5'
   '-x+0.5, z+0.5, -y+0.5'
   '-x, y, z'
   '-x+0.5, -z+0.5, y+0.5'
   '-z+0.5, -y+0.5, x+0.5'
   'x, -y, z'
   'z+0.5, -y+0.5, -x+0.5'
   '-z, -x, -y'
   '-y, -z, -x'
   'y, z, -x'
   '-z, x, y'
   'y, -z, x'
   'z, x, -y'
   'z, -x, y'
   '-y, z, x'
   '-y+0.5, -x+0.5, z+0.5'
   'y+0.5, x+0.5, z+0.5'
   'x+0.5, -z+0.5, -y+0.5'
   'x+0.5, z+0.5, y+0.5'
   '-z+0.5, y+0.5, -x+0.5'
   'z+0.5, y+0.5, x+0.5'
_cell_length_a       10.73033
_cell_length_b       10.73033
_cell_length_c       10.73033
_cell_angle_alpha    90.0000
_cell_angle_beta     90.0000
_cell_angle_gamma    90.0000
_cell_formula_units_Z 24
loop_
_atom_site_label
_atom_site_fract_x
_atom_site_fract_y
_atom_site_fract_z
_atom_site_occupancy
_atom_site_B_iso_or_equiv
o      0.650   0.150   0.250    1.00000    1.000
si      0.637   0.250   0.137    1.00000    1.000
o      0.813   0.000   0.650    1.00000    1.000
_cell_measurement_wavelength    1.541874
_cell_measurement_radiation   'x-rays'
_exptl_crystal_density_diffrn    1.938000
loop_
_pd_peak_d_spacing
_pd_peak_intensity
     7.587489        689.29
     5.365165       1000.00
     4.798750        444.04
     4.380639        207.44
     3.793745         11.90
     3.393228        273.95
     3.097580          1.21
     2.976058        165.63
     2.867801        110.56
     2.682583         37.41
     2.602487         24.71
     2.529163        218.09
     2.399375         79.54
     2.341550         27.87
     2.287714         17.56
     2.190320          0.17
     2.146066          3.48
     2.104391        156.24
     1.992572          2.63
     1.959081         12.21
     1.896872         65.51
     1.840236         50.54
     1.813757         10.40
     1.788388         20.46
     1.764055          6.26
     1.740689         12.09
     1.696614         15.11
     1.675796         30.09
     1.655726          0.85
     1.617658          0.02
     1.599583          5.66
     1.582101         15.06
     1.548790         75.05
     1.532904          7.99
     1.517498         26.97
     1.488029         29.90
     1.473924         15.60
     1.460213         39.22
     1.433901          0.27
     1.408961         13.13
     1.396970          3.02
     1.373878         24.99
     1.362753         22.42
     1.341291         29.28
     1.330934         18.69
     1.320812         18.09
     1.301244         96.00
     1.291780         10.24
     1.282520          7.07
     1.264582          2.26
     1.255890          0.95
     1.247376         45.42
     1.239032          0.04
     1.230853          0.31
     1.222835          3.42
     1.214971          2.78
     1.199687         11.63
     1.192259          6.66
     1.184967         23.09
     1.177807          4.29
     1.170775         18.14
     1.163868          3.39
     1.157081          5.21
     1.143857         17.67
     1.137413         18.19
     1.131076          1.77
     1.124844          0.04
     1.112683          0.01
     1.106749         15.80
     1.095160          0.34
     1.089500          4.26
     1.083927          7.55
     1.073033         12.15
     1.067708          3.44
     1.062461         12.60
     1.052195         12.29
     1.047173          9.12
     1.042222          0.53
     1.037340          0.34
     1.032527          0.83
     1.027779          5.37
     1.023097          4.12
     1.009425          1.45
##############################################################################
###                            Comments                                    ###
##############################################################################
###   Diffraction pattern calculated by Match!. 
###   I/Ic calculated by Match!. 
##############################################################################


