##############################################################################
###               Crystal structure data exported by Match!                ###
##############################################################################
###                           Data published by:                           ###
###                                                                        ###
###               COD (Crystallography Open Database)
##############################################################################
data_9009509
_citation_journal_full    'Mineralogical Magazine'
_citation_journal_volume  '61'
_citation_page_first  '677'
_citation_page_last   '683'
_citation_year  '1997'
_citation_title  'Crystal structure of austinite, CaZn(AsO4)OH Locality: Sonora, Mexico'
loop_
_publ_author_name
  'Clark L. A.'
  'Pluth J. J.'
  'Steele I. M.'
  'Smith J. V.'
  'Sutton S. R.'
_chemical_formula_sum  'As Ca H O5 Zn'
_chemical_name_mineral  'Austinite'
_symmetry_space_group_name_H-M 'P 21 21 21'
_space_group_IT_number 19
_space_group_crystal_system 'orthorhombic'
loop_
_symmetry_equiv_pos_as_xyz
   'x, y, z'
   '-x+0.5, -y, z+0.5'
   'x+0.5, -y+0.5, -z'
   '-x, y+0.5, -z+0.5'
_cell_length_a        7.50920
_cell_length_b        9.04380
_cell_length_c        5.93430
_cell_angle_alpha    90.0000
_cell_angle_beta     90.0000
_cell_angle_gamma    90.0000
loop_
_atom_site_label
_atom_site_fract_x
_atom_site_fract_y
_atom_site_fract_z
_atom_site_occupancy
_atom_site_B_iso_or_equiv
as      0.623   0.677   0.517    1.00000    0.468
zn      0.236   0.494   0.243    1.00000    0.761
ca      0.631   0.328   0.477    1.00000    0.771
o      0.448   0.559   0.490    1.00000    0.082
o      0.791   0.563   0.588    1.00000    0.110
o      0.350   0.268   0.231    1.00000    0.084
o      0.397   0.290   0.758    1.00000    0.091
o      0.108   0.427   0.509    1.00000    0.694
h      0.014   0.473   0.513    1.00000    2.131
_cell_measurement_wavelength    1.541874
_cell_measurement_radiation   'x-rays'
_exptl_crystal_density_diffrn    4.307000
loop_
_pd_peak_d_spacing
_pd_peak_intensity
     5.777295        378.30
     4.961534        312.47
     4.655925          9.49
     4.521900          1.95
     4.139558        365.35
     3.873764        110.42
     3.754600        244.69
     3.596708         30.07
     3.467640        216.19
     3.243813        144.18
     3.172873       1000.00
     2.993964         34.03
     2.967150         87.66
     2.888648        222.45
     2.819292         23.67
     2.797581        963.75
     2.759534          3.50
     2.687689          0.08
     2.639399        907.56
     2.597282        468.79
     2.530487        456.36
     2.480767        215.34
     2.412375        129.04
     2.355552        137.62
     2.350668        148.26
     2.327962        182.43
     2.306301          0.43
     2.260950         39.91
     2.254470         20.81
     2.234779         32.06
     2.189942          0.04
     2.185456          5.37
     2.164946          3.13
     2.114668          0.89
     2.112799          2.67
     2.069779        241.49
     2.054510         35.16
     2.035496         21.59
     2.033829          2.54
     1.936882         73.59
     1.932416          9.13
     1.925765          3.43
     1.913221          0.03
     1.912845          2.49
     1.877300         43.25
     1.871794         91.03
     1.871443         81.12
     1.842526          6.69
     1.841288         43.61
     1.838116          0.51
     1.831729        205.00
     1.812285         18.66
     1.798354        195.76
     1.789874          0.01
     1.761998          6.66
     1.761705         18.25
     1.758467          5.73
     1.755817         37.09
     1.750073        135.82
     1.748900         10.56
     1.733820        271.86
     1.730177          0.22
     1.718199          5.78
     1.686002         83.66
     1.677818          4.70
     1.664242          0.20
     1.653845          0.54
     1.632104         52.38
     1.629528          9.84
     1.621907        104.36
     1.615362        458.86
     1.615136        101.27
     1.614528         29.38
     1.593567          0.05
     1.586437        201.26
     1.571362          3.68
     1.562578          1.11
     1.551975          1.82
     1.544423          0.26
     1.539042         31.39
     1.529616          9.19
     1.513518          0.76
     1.512759        273.79
     1.507300         60.20
     1.496982          5.62
     1.488747         13.40
     1.483575        144.20
     1.481551         67.60
     1.477822          1.22
     1.467924         23.91
     1.466049         90.00
     1.464007          0.03
     1.460911          2.19
     1.460492         21.98
     1.460325          8.30
     1.455938          0.22
     1.455442          5.94
     1.444324         41.32
     1.437431         13.97
     1.436953         45.60
     1.434025          7.26
     1.428307         32.71
     1.425286          8.61
     1.423260         48.97
     1.409646          0.16
     1.403904          5.02
     1.403357          4.92
     1.398790         19.61
     1.385874         19.84
     1.385446         12.33
     1.383925         15.88
     1.379853         68.62
     1.379767         10.06
     1.363984         25.68
     1.361693          0.57
     1.361479        105.96
     1.346515          6.43
     1.344259          0.60
     1.343845          3.61
     1.339971          0.00
     1.334846          3.24
     1.331114          1.60
     1.325501          5.77
     1.322829         15.35
     1.319699         31.93
     1.314365          6.55
     1.314243         29.24
     1.311043         47.61
     1.310680        144.41
     1.303858         10.16
     1.302543          0.62
     1.298641          2.09
     1.291255          0.06
     1.284750         19.57
     1.279534         10.47
     1.276245          0.20
     1.273263          5.11
     1.272257         11.48
     1.265243         21.46
     1.263724         51.54
     1.262400         10.04
     1.261731          6.85
     1.257724          5.12
     1.254601         13.89
     1.251533          7.19
     1.250999          0.24
     1.244930          1.23
     1.240966          7.06
     1.240383          7.91
     1.239719         12.02
     1.228262          5.32
     1.224596         67.06
     1.224459        117.76
     1.224095          3.33
     1.223800          1.39
     1.221667          2.54
     1.213521          9.91
     1.206187         13.01
     1.198903          0.16
     1.196575          0.46
     1.196150          3.61
     1.192682          1.87
     1.185823         10.05
     1.184550          0.15
     1.183997          2.85
     1.183908          2.02
     1.182018         11.42
     1.177829         27.11
     1.177776         37.23
     1.176770          4.93
     1.175334          3.59
     1.175263          1.24
     1.172308          0.52
     1.170081         23.75
     1.166474          8.21
     1.163981         13.09
     1.162581         14.60
     1.156376         11.54
     1.155880          0.15
     1.155459         29.65
     1.154459          0.92
     1.153150          5.38
     1.152939          1.53
     1.152732          3.97
     1.148060         30.84
     1.147976          6.44
     1.147079          0.05
     1.143889          3.29
     1.142091         49.93
     1.134792          1.27
     1.134558          5.88
     1.134160         16.37
     1.133925          4.42
     1.131665         29.46
     1.130475          4.77
     1.129662         11.28
     1.127235         81.46
     1.127161          8.88
     1.122908          0.35
     1.117878          1.54
     1.117389         14.52
     1.111825         26.96
     1.111406          1.11
     1.110505          1.96
     1.104353          1.75
     1.098557          0.16
     1.097809         18.00
     1.097024          4.26
     1.094971          5.53
     1.092728        117.42
     1.092601         14.42
     1.087873          6.37
     1.085850          1.31
     1.082473          8.63
     1.081692          5.27
     1.081271          1.66
     1.077042          0.07
     1.076794          6.15
     1.076701          0.19
     1.072412          0.60
     1.070707          8.31
     1.070641          7.07
     1.065275          1.06
     1.064951         13.65
     1.064902         32.57
     1.064287          0.77
     1.063886          0.30
     1.059474          2.51
     1.057624         26.63
     1.057334         36.81
     1.057302          1.92
     1.056399         62.95
     1.055634          3.63
     1.055444          0.06
     1.050870          4.19
     1.050466          1.69
     1.048515          6.48
     1.048329         41.38
     1.047573          9.12
     1.047191          4.85
     1.047006          1.34
     1.046098          1.94
     1.043773          0.32
     1.043468          4.58
     1.042794         44.55
     1.040728          4.48
     1.039416          0.63
     1.034889         22.90
     1.030273          0.87
     1.029831          9.75
     1.029183          0.04
     1.027993          9.07
     1.027818          4.23
     1.027255         10.06
     1.017748         17.94
     1.016914         12.15
     1.015088          0.59
     1.014046          3.12
     1.011979          3.00
     1.010660         25.65
     1.010429          2.50
     1.010384         13.04
     1.008834          0.00
##############################################################################
###                            Comments                                    ###
##############################################################################
###   Diffraction pattern calculated by Match!. 
###   I/Ic calculated by Match!. 
##############################################################################


