##############################################################################
###               Crystal structure data exported by Match!                ###
##############################################################################
###                           Data published by:                           ###
###                                                                        ###
###               COD (Crystallography Open Database)
##############################################################################
data_4002431
_citation_journal_full    'Chemistry of Materials (1,1989-)'
_citation_journal_volume  '18'
_citation_page_first  '1464'
_citation_page_last   '1469'
_citation_year  '2006'
_citation_title  'Magic silica clusters as nanoscale building units forsuper-(tris)tetrahedral materials'
loop_
_publ_author_name
  'Wojdel J.C.'
  'Zwijnenburg M.A.'
  'Bromley S.T.'
_chemical_formula_sum  'O2 Si'
_chemical_name_common  'Silica'
_symmetry_space_group_name_H-M 'P -1'
_space_group_IT_number 2
_space_group_crystal_system 'triclinic'
loop_
_symmetry_equiv_pos_as_xyz
   'x, y, z'
   '-x, -y, -z'
_cell_length_a       12.95900
_cell_length_b       10.12000
_cell_length_c       13.12100
_cell_angle_alpha    95.6960
_cell_angle_beta     86.3050
_cell_angle_gamma    88.4170
_cell_formula_units_Z 16
loop_
_atom_site_label
_atom_site_fract_x
_atom_site_fract_y
_atom_site_fract_z
_atom_site_occupancy
_atom_site_B_iso_or_equiv
o      0.148   0.723   0.665    1.00000    1.000
si      0.101   0.234   0.430    1.00000    1.000
o      0.181   0.464   0.609    1.00000    1.000
si      0.080   0.765   0.570    1.00000    1.000
o      0.342   0.692   0.343    1.00000    1.000
o      0.193   0.536   0.391    1.00000    1.000
si      0.250   0.328   0.567    1.00000    1.000
o      0.330   0.308   0.657    1.00000    1.000
o      0.493   0.465   0.614    1.00000    1.000
si      0.251   0.672   0.433    1.00000    1.000
si      0.421   0.564   0.301    1.00000    1.000
o      0.318   0.354   0.461    1.00000    1.000
o      0.015   0.119   0.399    1.00000    1.000
si      0.238   0.604   0.640    1.00000    1.000
o      0.318   0.568   0.726    1.00000    1.000
si      0.398   0.436   0.699    1.00000    1.000
o      0.006   0.348   0.462    1.00000    1.000
o      0.161   0.788   0.470    1.00000    1.000
o      0.307   0.645   0.539    1.00000    1.000
o      0.351   0.432   0.274    1.00000    1.000
o      0.170   0.211   0.530    1.00000    1.000
o      0.483   0.408   0.786    1.00000    1.000
o      0.179   0.277   0.335    1.00000    1.000
si      0.261   0.396   0.360    1.00000    1.000
_cell_measurement_wavelength    1.541874
_cell_measurement_radiation   'x-rays'
_exptl_crystal_density_diffrn    0.934000
loop_
_pd_peak_d_spacing
_pd_peak_intensity
    13.026397       1000.00
    12.924469          0.00
    10.064120        308.81
     9.501292         14.96
     8.879815         16.62
     8.385586         74.95
     8.075894         27.18
     7.811951         36.00
     7.600384         32.11
     7.083116          1.77
     6.987162          6.49
     6.746817         25.81
     6.513198          1.97
     6.462234         24.12
     6.372272         21.49
     5.981002         26.08
     5.951276         16.38
     5.739584          0.55
     5.664641         20.95
     5.639368         12.42
     5.524485         10.49
     5.354974          6.81
     5.325169         21.04
     5.231663         12.59
     5.169484         21.93
     5.156011          9.17
     5.089935          5.10
     5.082078          7.25
     5.032060          3.67
     4.975748          0.73
     4.862456         14.61
     4.771883          3.06
     4.750646          1.72
     4.744462         13.25
     4.732268          0.41
     4.635792         13.00
     4.562915          0.67
     4.541923          3.38
     4.539237          1.22
     4.439907          0.63
     4.379160          0.14
     4.359966         10.61
     4.342132          7.37
     4.308156          0.00
     4.217539          3.03
     4.213830          7.28
     4.208606          0.37
     4.202640          3.45
     4.192793         13.96
     4.175204          0.00
     4.142410          2.76
     4.037947          0.31
     4.034602          1.71
     4.010561          0.02
     4.010308          0.02
     4.005782          0.04
     4.003760          4.55
     3.970814          0.06
     3.930031          2.09
     3.912342          0.06
     3.905975          2.19
     3.900224          1.91
     3.888270          3.40
     3.870755          0.79
     3.857516          0.07
     3.855491          0.00
     3.847661         10.11
     3.814978          4.42
     3.808961          0.05
     3.800192          5.57
     3.763561          0.00
     3.722376          0.94
     3.712034          0.13
     3.710401          0.10
     3.647168          0.12
     3.624202          5.03
     3.616274          0.00
     3.583102          0.00
     3.570022          6.08
     3.541558          1.07
     3.513636          0.15
     3.496432          0.81
     3.493581          0.44
     3.486502          0.15
     3.465622          3.21
     3.449921          0.05
     3.417428          1.02
     3.410299          8.06
     3.381228          0.05
     3.373409          0.89
     3.373048          0.24
     3.354707          1.10
     3.331210          2.37
     3.329454          0.09
     3.322270          0.29
     3.274503          0.08
     3.256599          1.36
     3.238921          0.42
     3.237279          0.02
     3.231117          0.37
     3.220386          0.09
     3.218590          0.00
     3.214354          0.03
     3.213964          0.06
     3.212806          0.49
     3.212011          0.16
     3.209679          0.34
     3.204845          0.72
     3.194645          0.17
     3.186784          0.44
     3.186136          0.40
     3.172042          0.14
     3.167097          0.03
     3.142114          0.00
     3.134176          1.09
     3.116051          0.01
     3.113480          0.72
     3.108539          0.56
     3.107597          0.54
     3.096005          0.47
     3.093454          0.05
     3.087726          0.57
     3.064056          0.23
     3.062055          0.03
     3.046366          0.04
     3.046226          0.70
     3.046024          0.67
     3.044002          0.20
     3.030261          0.58
     3.027393          0.05
     3.027229          0.05
     3.026552          0.01
     3.020030          2.20
     3.016299          0.41
     3.010402          0.38
     3.000044          0.64
     2.998146          0.49
     2.990501          1.09
     2.982528          0.22
     2.981359          0.08
     2.980170          0.22
     2.979786          0.02
     2.975638          0.75
     2.959938          0.00
     2.946936          0.00
     2.940962          0.00
     2.936560          3.53
     2.928985          7.43
     2.913626          1.40
     2.906038          0.69
     2.904159          7.23
     2.900980          0.12
     2.885940          0.19
     2.869792          0.20
     2.866516          0.13
     2.865013          0.67
     2.842172          0.68
     2.834084          0.55
     2.832321          0.36
     2.825569          0.81
     2.819684          0.67
     2.808083          0.29
     2.805445          0.38
     2.804367          0.40
     2.802807          6.15
     2.795195          0.01
     2.794027          6.12
     2.778152          0.73
     2.771074          0.01
     2.768692          0.52
     2.764247          0.66
     2.762242          0.54
     2.761851          0.00
     2.745461          0.20
     2.741238          0.05
     2.740502          0.14
     2.723641          0.20
     2.703338          0.31
     2.700981          0.63
     2.691965          0.64
     2.686648          0.40
     2.681398          0.47
     2.680336          0.31
     2.679552          2.22
     2.677487          0.24
     2.664567          0.62
     2.662584          0.52
     2.661233          0.13
     2.656912          0.08
     2.655937          0.27
     2.636934          5.02
     2.623439          0.10
     2.616084          5.20
     2.615831          0.07
     2.614190          0.00
     2.612300          0.05
     2.605279          0.06
     2.603984          2.80
     2.600544          0.04
     2.587995          0.79
     2.586497          0.00
     2.584894          0.00
     2.584742          0.92
     2.579562          0.27
     2.578005          0.56
     2.568800          0.00
     2.568367          0.59
     2.567619          0.00
     2.565124          0.15
     2.564805          0.88
     2.556433          0.07
     2.551638          0.28
     2.544968          0.02
     2.541039          0.23
     2.533461          0.03
     2.528661          0.02
     2.524560          0.00
     2.524057          0.04
     2.522880          0.00
     2.521135          0.72
     2.518320          0.01
     2.517376          0.34
     2.517364          0.75
     2.516030          0.03
     2.512182          0.01
     2.508249          0.14
     2.503380          0.01
     2.500695          6.42
     2.497439          0.04
     2.496784          6.55
     2.487874          0.22
     2.487727          0.15
     2.485694          0.54
     2.483217          0.08
     2.481746          0.46
     2.480648          0.00
     2.474974          0.02
     2.464766          0.00
     2.462364          0.06
     2.462040          0.50
     2.460251          0.11
     2.459876          0.07
     2.456064          0.63
     2.454232          3.65
     2.453942          0.49
     2.451627          0.08
     2.451059          2.97
     2.433723          0.99
     2.432778          0.28
     2.431228          0.09
     2.425062          0.01
     2.415634          0.00
     2.412812          0.03
     2.409654          0.33
     2.403414          0.04
     2.399936          0.16
     2.399869          0.00
     2.394571          0.23
     2.392998          0.22
     2.392755          0.02
     2.389997          0.46
     2.387509          0.03
     2.387364          0.04
     2.386771          0.03
     2.385941          0.08
     2.385903          0.03
     2.375323          0.34
     2.372231          0.16
     2.368102          0.39
     2.366134          0.18
     2.364011          0.01
     2.363485          0.23
     2.361618          0.02
     2.361039          0.03
     2.358353          0.26
     2.354956          0.14
     2.354446          1.96
     2.348817          0.28
     2.345523          2.62
     2.338983          0.05
     2.337387          1.29
     2.332896          0.01
     2.331978          0.37
     2.329767          0.15
     2.329054          0.04
     2.328359          0.50
     2.324108          2.17
     2.323103          0.31
     2.322389          0.67
     2.320951          1.45
     2.317896          0.40
     2.311048          0.03
     2.308031          0.15
     2.305297          2.02
     2.301081          0.81
     2.300151          0.21
     2.299168          0.72
     2.297786          0.62
     2.290148          0.56
     2.289931          0.00
     2.288367          1.49
     2.287047          0.15
     2.283298          0.28
     2.281458          0.19
     2.279416          0.09
     2.276843          6.12
     2.274996          0.24
     2.270961          0.00
     2.269619          0.25
     2.267912          0.82
     2.257758          0.01
     2.253847          0.02
     2.248939          0.29
     2.247604          0.23
     2.246471          0.00
     2.244289          0.80
     2.243077          0.00
     2.242548          0.20
     2.241447          0.37
     2.237150          1.90
     2.229201          0.88
     2.226685          0.03
     2.223470          0.06
     2.222003          0.01
     2.220109          0.05
     2.219954          0.83
     2.218425          0.00
     2.216213          0.01
     2.215170          0.00
     2.211331          2.39
     2.210244          2.49
     2.210013          2.21
     2.207604          0.02
     2.205809          0.96
     2.205319          0.48
     2.195717          0.71
     2.194519          0.00
     2.189580          1.39
     2.185807          0.13
     2.179983          1.13
     2.174793          0.00
     2.171066          0.06
     2.169480          0.02
     2.167990          0.00
     2.167713          0.01
     2.166703          0.05
     2.165513          0.19
     2.165106          0.00
     2.165094          0.23
     2.163721          0.01
     2.162639          3.63
     2.159386          0.00
     2.157971          0.26
     2.155697          3.81
     2.154284          0.06
     2.154078          0.00
     2.152596          0.09
     2.151383          0.26
     2.151221          0.08
     2.149794          1.92
     2.148846          0.22
     2.148707          0.00
     2.146636          0.08
     2.145006          0.76
     2.140940          1.66
     2.129748          0.21
     2.126819          0.09
     2.125118          0.21
     2.124529          0.01
     2.124091          0.04
     2.121298          0.02
     2.117825          0.18
     2.117466          0.01
     2.115847          0.00
     2.110223          0.02
     2.108884          0.03
     2.108769          0.14
     2.106915          0.55
     2.104303          2.32
     2.102794          0.02
     2.102481          0.03
     2.101320          0.05
     2.098571          1.57
     2.098501          0.00
     2.096396          0.03
     2.094700          0.21
     2.093892          0.03
     2.093679          0.74
     2.091755          0.03
     2.087602          0.04
     2.087198          0.15
     2.084123          2.14
     2.082349          0.15
     2.080537          0.10
     2.079282          0.03
     2.079181          2.56
     2.078874          0.03
     2.076673          0.00
     2.076387          0.00
     2.075719          0.17
     2.075242          0.02
     2.074253          0.01
     2.074244          0.01
     2.073240          2.83
     2.071205          0.00
     2.066693          1.81
     2.066538          0.00
     2.066218          0.48
     2.064484          0.01
     2.061899          0.20
     2.061387          0.10
     2.060060          1.27
     2.058957          0.00
     2.056942          0.07
     2.055665          2.06
     2.053538          0.43
     2.044391          0.01
     2.043788          0.01
     2.042555          0.04
     2.041035          0.09
     2.037842          0.01
     2.037194          0.00
     2.036167          0.01
     2.035628          0.02
     2.033546          0.10
     2.030452          0.00
     2.030163          0.00
     2.029214          0.19
     2.025820          0.00
     2.022515          0.00
     2.022112          0.13
     2.020337          0.04
     2.019155          0.34
     2.018973          1.53
     2.018476          0.00
     2.017301          0.09
     2.014468          0.19
     2.012824          0.16
     2.011115          0.00
     2.007054          0.18
     2.005280          0.00
     2.005154          0.00
     2.003420          0.05
     2.002891          0.07
     2.001880          0.44
     1.999292          0.03
     1.993667          0.02
     1.990711          0.00
     1.989286          0.07
     1.988852          0.06
     1.988681          0.00
     1.988326          0.01
     1.985407          0.08
     1.985074          0.97
     1.984680          0.04
     1.983759          0.00
     1.983459          1.78
     1.980503          0.01
     1.979047          1.63
     1.978600          0.11
     1.978569          0.01
     1.975256          0.07
     1.966143          0.68
     1.965263          0.54
     1.965016          0.13
     1.964327          0.79
     1.964175          1.53
     1.963743          0.05
     1.963568          0.01
     1.962693          0.01
     1.962077          0.02
     1.961524          0.01
     1.961152          0.05
     1.960010          0.02
     1.959492          0.00
     1.957542          0.18
     1.957172          0.17
     1.956171          0.00
     1.953802          0.00
     1.952988          1.37
     1.951767          0.01
     1.951717          0.02
     1.950112          0.12
     1.949969          0.27
     1.944135          0.41
     1.943157          0.19
     1.941564          0.12
     1.940896          0.20
     1.940732          0.01
     1.939182          0.08
     1.935615          0.35
     1.935378          0.00
     1.933342          0.46
     1.928905          0.32
     1.928758          0.05
     1.927745          0.27
     1.927524          0.03
     1.924978          0.37
     1.924918          0.03
##############################################################################
###                            Comments                                    ###
##############################################################################
###   Diffraction pattern calculated by Match!. 
###   I/Ic calculated by Match!. 
###   Space group has been derived from given symmetry operations. 
##############################################################################


