##############################################################################
###               Crystal structure data exported by Match!                ###
##############################################################################
###                           Data published by:                           ###
###                                                                        ###
###               COD (Crystallography Open Database)
##############################################################################
data_4124045
_citation_journal_full    'Journal of the American Chemical Society'
_citation_journal_volume  '126'
_citation_page_first  '9769'
_citation_page_last   '9775'
_citation_year  '2004'
_citation_title  'Chemical evaluation of hypothetical uninodal zeolites'
loop_
_publ_author_name
  'Foster M.D.'
  'Friedrichs O.D.'
  'Klinowski J.'
  'Bell R.G.'
  'Paz F.A.A.'
_chemical_formula_sum  'O2 Si'
_chemical_name_common  'Silica'
_symmetry_space_group_name_H-M 'I 4/m c m'
_space_group_IT_number 140
_space_group_crystal_system 'tetragonal'
loop_
_symmetry_equiv_pos_as_xyz
   'x, y, z'
   'x+0.5, y+0.5, z+0.5'
   '-y, x, z'
   '-y+0.5, x+0.5, z+0.5'
   '-x, -y, z'
   '-x+0.5, -y+0.5, z+0.5'
   'y, -x, z'
   'y+0.5, -x+0.5, z+0.5'
   'x, -y, -z+0.5'
   'x+0.5, -y+0.5, -z'
   '-x, y, -z+0.5'
   '-x+0.5, y+0.5, -z'
   'y, x, -z+0.5'
   'y+0.5, x+0.5, -z'
   '-y, -x, -z+0.5'
   '-y+0.5, -x+0.5, -z'
   '-x, -y, -z'
   '-x+0.5, -y+0.5, -z+0.5'
   'y, -x, -z'
   'y+0.5, -x+0.5, -z+0.5'
   'x, y, -z'
   'x+0.5, y+0.5, -z+0.5'
   '-y, x, -z'
   '-y+0.5, x+0.5, -z+0.5'
   '-x, y, z+0.5'
   '-x+0.5, y+0.5, z'
   'x, -y, z+0.5'
   'x+0.5, -y+0.5, z'
   '-y, -x, z+0.5'
   '-y+0.5, -x+0.5, z'
   'y, x, z+0.5'
   'y+0.5, x+0.5, z'
_cell_length_a       13.89656
_cell_length_b       13.89656
_cell_length_c        8.89660
_cell_angle_alpha    90.0000
_cell_angle_beta     90.0000
_cell_angle_gamma    90.0000
_cell_formula_units_Z 32
loop_
_atom_site_label
_atom_site_fract_x
_atom_site_fract_y
_atom_site_fract_z
_atom_site_occupancy
_atom_site_B_iso_or_equiv
o      0.266   0.000   0.250    1.00000    1.000
o      0.355   0.645   0.750    1.00000    1.000
o      0.331   0.831   0.795    1.00000    1.000
si      0.260   0.601   0.675    1.00000    1.000
o      0.720   0.413   0.500    1.00000    1.000
_cell_measurement_wavelength    1.541874
_cell_measurement_radiation   'x-rays'
_exptl_crystal_density_diffrn    1.858000
loop_
_pd_peak_d_spacing
_pd_peak_intensity
     9.826352         60.37
     6.948280       1000.00
     5.094771        601.43
     4.913176        398.42
     4.448300        521.06
     4.394478         33.21
     4.052409          0.01
     3.746333        114.97
     3.536596        283.52
     3.474140          0.05
     3.297556         43.58
     3.275451          3.99
     3.151814         88.73
     3.126220          0.05
     3.107365        379.41
     2.738034          1.71
     2.725340          0.22
     2.676436        181.66
     2.652872          3.94
     2.637556          4.16
     2.547385         61.16
     2.478375         23.63
     2.456588         18.82
     2.383240         19.42
     2.350330         64.76
     2.323869         17.53
     2.316093         35.86
     2.226406          0.23
     2.224150         21.68
     2.212787         27.48
     2.197239          1.74
     2.169276          1.14
     2.150452          4.94
     2.118272          1.28
     2.108449         27.22
     2.100735          3.71
     2.054314          2.60
     2.027910          7.42
     2.026205          8.69
     2.017602          0.69
     1.984455          3.17
     1.970014         34.53
     1.965270         34.27
     1.946694         17.35
     1.927106         13.84
     1.873166          0.11
     1.866363          2.81
     1.840033          3.19
     1.824708          2.13
     1.809810         19.65
     1.808597          0.06
     1.797645         10.84
     1.768298          5.91
     1.751374         17.02
     1.744722          6.37
     1.737070         26.00
     1.723154          1.22
     1.710591         54.68
     1.698257          8.52
     1.692189         18.00
     1.688194          0.16
     1.685205          0.02
     1.648778         24.09
     1.637725         34.46
     1.626047          1.66
     1.618074         24.93
     1.615478         34.85
     1.615442          0.95
     1.605077          7.06
     1.604231          9.69
     1.599952         34.67
     1.575907          0.54
     1.573509          5.09
     1.563110         10.72
     1.553683          0.36
     1.536874         11.11
     1.534618          4.81
     1.525724          6.27
     1.518414          0.00
     1.498533          1.24
     1.490220         21.05
     1.486115         12.11
     1.482767          6.62
     1.472719          3.49
     1.466787          0.26
     1.466168          0.01
     1.464853          3.76
     1.464826          6.74
     1.456452          4.63
     1.453247          6.17
     1.450714          0.03
     1.450115          5.08
     1.426066         17.68
     1.419530          1.11
     1.410706          0.10
     1.404946          0.01
     1.403788          8.95
     1.403765          7.11
     1.393564          0.00
     1.391330          4.42
     1.389656         11.90
     1.375987         13.62
     1.369017          0.02
     1.366354          4.30
     1.363750          0.12
     1.362670         19.00
     1.350803          1.48
     1.349774          0.00
     1.349753          1.60
     1.343690         20.04
     1.343193          0.03
     1.338689          1.56
     1.338218         21.90
     1.326436         10.28
     1.319248         17.85
     1.318778          0.46
     1.316397          1.63
     1.307059          0.21
     1.302907          8.83
     1.302473          2.65
     1.301551          0.60
     1.293390          0.51
     1.291603          0.02
     1.290263         34.29
     1.274116          4.07
     1.273693          0.91
     1.271548          0.02
     1.269448         37.45
     1.263126          0.26
     1.258986          0.41
     1.258152          3.50
     1.258135          3.45
     1.253220          0.96
     1.248778         30.13
     1.245172          0.00
     1.239187         23.06
     1.238020         12.49
     1.230990          1.38
     1.229085         12.86
     1.228294          3.86
     1.223344          0.07
     1.218809          5.89
     1.214339          2.78
     1.210644          0.96
     1.207012          1.58
     1.200495         18.27
     1.196208          5.29
     1.191620          6.37
     1.189202          4.19
     1.187099          3.81
     1.183986          3.94
     1.183660         10.43
     1.178865          2.61
     1.178530          1.50
     1.176830          0.00
     1.175484          7.67
     1.175165          0.11
     1.161935          0.12
     1.158047          6.91
     1.155827          0.04
     1.153896          0.36
     1.151036          4.69
     1.150737          2.00
     1.150100          9.17
     1.150087          6.00
     1.146330         13.24
     1.144458          9.01
     1.142290          1.50
     1.140160          2.00
     1.134662          7.51
     1.129242          0.69
     1.127771          1.26
     1.120692          5.13
     1.116062          0.00
     1.114618          0.01
     1.113474          0.33
     1.113203          0.10
     1.112075          0.48
     1.110646          0.58
     1.106393          0.03
     1.105562          0.15
     1.105021          0.09
     1.102212          0.14
     1.100548          0.18
     1.099185         11.97
     1.098620          0.02
     1.098099          0.98
     1.096724          0.01
     1.095073          0.03
     1.092372          1.07
     1.091828          4.25
     1.091817          0.17
     1.085139          0.96
     1.084638          0.04
     1.083312          0.09
     1.078090          0.48
     1.075481         17.50
     1.075226          0.21
     1.072669          2.21
     1.068846          1.96
     1.066572          0.66
     1.066334          5.52
     1.065828          1.50
     1.065817          1.57
     1.062824          0.08
     1.061332          1.65
     1.060344          0.06
     1.059136          0.01
     1.057902          1.05
     1.054224          0.53
     1.053505          1.66
     1.053037          1.19
     1.050605          1.26
     1.050367          2.51
     1.049163          0.17
     1.047042          3.41
     1.042073          1.10
     1.041601          0.03
     1.041591          0.83
     1.038797          0.27
     1.036481          0.23
     1.035788          0.84
     1.034199          0.15
     1.029653          0.10
##############################################################################
###                            Comments                                    ###
##############################################################################
###   Diffraction pattern calculated by Match!. 
###   I/Ic calculated by Match!. 
###   Space group has been derived from given symmetry operations. 
##############################################################################


