##############################################################################
###               Crystal structure data exported by Match!                ###
##############################################################################
###                           Data published by:                           ###
###                                                                        ###
###               COD (Crystallography Open Database)
##############################################################################
data_9003078
_citation_journal_full    'American Mineralogist'
_citation_journal_volume  '88'
_citation_page_first  '1423'
_citation_page_last   '1427'
_citation_year  '2003'
_citation_title  'Variation of hydrogen bonded O...O distances in goethite at high pressureSample at P = 2.8 GPa'
loop_
_publ_author_name
  'Nagai T.'
  'Kagi H.'
  'Yamanaka T.'
_chemical_formula_sum  'Fe H O2'
_chemical_name_mineral  'Goethite'
_symmetry_space_group_name_H-M 'P b n m'
_space_group_IT_number 62
_space_group_crystal_system 'orthorhombic'
loop_
_symmetry_equiv_pos_as_xyz
   'x, y, z'
   '-x, -y, z+0.5'
   'x+0.5, -y+0.5, -z'
   '-x+0.5, y+0.5, -z+0.5'
   '-x, -y, -z'
   'x, y, -z+0.5'
   '-x+0.5, y+0.5, z'
   'x+0.5, -y+0.5, z+0.5'
_cell_length_a        4.56920
_cell_length_b        9.94280
_cell_length_c        3.01630
_cell_angle_alpha    90.0000
_cell_angle_beta     90.0000
_cell_angle_gamma    90.0000
loop_
_atom_site_label
_atom_site_fract_x
_atom_site_fract_y
_atom_site_fract_z
_atom_site_occupancy
_atom_site_B_iso_or_equiv
fe      -0.049   0.146   0.250    1.00000    1.000
o      0.288   -0.196   0.250    1.00000    1.000
o      -0.200   -0.054   0.250    1.00000    1.000
_cell_measurement_wavelength    1.541874
_cell_measurement_radiation   'x-rays'
_cell_measurement_pressure       2800000.000000
_exptl_crystal_density_diffrn    4.258000
loop_
_pd_peak_d_spacing
_pd_peak_intensity
     4.971400        128.92
     4.151786       1000.00
     3.364129        121.47
     2.682819        437.06
     2.578767        240.17
     2.517273         52.78
     2.485700        157.06
     2.440280        674.11
     2.284600         26.98
     2.245784         89.58
     2.226579         33.48
     2.183508        163.29
     2.075893         12.17
     2.004615         37.95
     1.918260         60.82
     1.881004          5.32
     1.823364          7.04
     1.791373        104.14
     1.768712         24.80
     1.710044        342.23
     1.682064         92.36
     1.657133         34.63
     1.596082         72.62
     1.560413        226.40
     1.557844          4.64
     1.508150        101.03
     1.505506          5.26
     1.499944         44.66
     1.469076         30.81
     1.456257         45.20
     1.452379         99.85
     1.443202          5.31
     1.417524         56.90
     1.384137          0.08
     1.383929         39.50
     1.376187         11.11
     1.359572         42.21
     1.356374         51.85
     1.347037         18.46
     1.343049          0.02
     1.341410         18.76
     1.314663         67.01
     1.311416         20.04
     1.298668          0.64
     1.289384         28.31
     1.258637          8.62
     1.257850         17.83
     1.248672          8.74
     1.242850          0.21
     1.240922         25.55
     1.237054          1.17
     1.225670          4.62
     1.220140          3.02
     1.209154          0.27
     1.206267          0.22
     1.199276          0.27
     1.192808         32.18
     1.176645          1.80
     1.162133          1.95
     1.149123         22.67
     1.142300          3.89
     1.134835         27.12
     1.122892         33.40
     1.122333          9.29
     1.121376          9.54
     1.120023          9.41
     1.115383         13.41
     1.114420          1.23
     1.113289          0.45
     1.091754         12.76
     1.083565          2.09
     1.079955          4.50
     1.073814          4.53
     1.065487          2.90
     1.063510         21.03
     1.062148          4.98
     1.051089         20.58
     1.047595         24.13
     1.044420          1.79
     1.038775          8.01
     1.037946          1.26
     1.026577         19.86
     1.019678         22.71
     1.016750         27.39
     1.011620         26.26
     1.008504         33.49
##############################################################################
###                            Comments                                    ###
##############################################################################
###   Diffraction pattern calculated by Match!. 
###   I/Ic calculated by Match!. 
###   Space group has been derived from given symmetry operations. 
##############################################################################


