##############################################################################
###               Crystal structure data exported by Match!                ###
##############################################################################
###                           Data published by:                           ###
###                                                                        ###
###               COD (Crystallography Open Database)
##############################################################################
data_9012702
_citation_journal_full    'Journal of Solid State Chemistry'
_citation_journal_volume  '57'
_citation_page_first  '343'
_citation_page_last   '350'
_citation_year  '1985'
_citation_title  'Monoxyde quadratique PbO alpha(I): Description de la transition structuraleferroelastique Method: X-ray Diffraction T = 473 K Locality: synthetic'
loop_
_publ_author_name
  'Boher P.'
  'Garnier P.'
  'Gavarri J. R.'
  'Hewat A. W.'
_chemical_formula_sum  'O Pb'
_chemical_name_mineral  'Litharge'
_symmetry_space_group_name_H-M 'P 4/n m m'
_space_group_IT_number 129
_space_group_crystal_system 'tetragonal'
loop_
_symmetry_equiv_pos_as_xyz
   'x, y, z'
   '-x+0.5, -y+0.5, -z'
   '-y+0.5, x+0.5, z'
   '-x, -y, z'
   'y+0.5, -x+0.5, z'
   'y, -x, -z'
   '-y, x, -z'
   'x+0.5, -y+0.5, -z'
   '-x+0.5, y+0.5, -z'
   'y, x, -z'
   '-y, -x, -z'
   'x+0.5, y+0.5, -z'
   '-x, y, z'
   'x, -y, z'
   '-y+0.5, -x+0.5, z'
   'y+0.5, x+0.5, z'
_cell_length_a        3.98540
_cell_length_b        3.98540
_cell_length_c        5.04350
_cell_angle_alpha    90.0000
_cell_angle_beta     90.0000
_cell_angle_gamma    90.0000
loop_
_atom_site_label
_atom_site_fract_x
_atom_site_fract_y
_atom_site_fract_z
_atom_site_occupancy
_atom_site_B_iso_or_equiv
pb      0.000   0.500   0.235    1.00000    1.000
o      0.000   0.000   0.000    1.00000    1.399
_cell_measurement_wavelength    1.541874
_cell_measurement_radiation   'x-rays'
_cell_measurement_temperature    473.000000
_exptl_crystal_density_diffrn    9.253000
loop_
_pd_peak_d_spacing
_pd_peak_intensity
     5.043500         27.58
     3.126959       1000.00
     2.818103        320.08
     2.521750        113.63
     2.460112          0.07
     2.130987         11.03
     1.992700        155.83
     1.879216        248.11
     1.853289          5.44
     1.681167          1.62
     1.680478        302.87
     1.563479        100.31
     1.548991        105.66
     1.455486          5.95
     1.443775          9.43
     1.409052         44.77
     1.357084          1.48
     1.284957          2.68
     1.284649         56.28
     1.260875         12.88
     1.260294         47.55
     1.230056         42.10
     1.222963         87.90
     1.222698          0.15
     1.202147          5.66
     1.175348          1.35
     1.150928         30.17
     1.127345         76.35
     1.079907          1.59
     1.079724         62.64
     1.065494         29.24
     1.042320         26.73
     1.029342          7.12
     1.012368          1.78
     1.008700          1.57
     1.008403          5.28
##############################################################################
###                            Comments                                    ###
##############################################################################
###   Diffraction pattern calculated by Match!. 
###   I/Ic calculated by Match!. 
###   Space group has been derived from given symmetry operations. 
##############################################################################


