##############################################################################
###               Crystal structure data exported by Match!                ###
##############################################################################
###                           Data published by:                           ###
###                                                                        ###
###               COD (Crystallography Open Database)
##############################################################################
data_9014007
_citation_journal_full    'American Mineralogist'
_citation_journal_volume  '52'
_citation_page_first  '1877'
_citation_page_last   '1880'
_citation_year  '1967'
_citation_title  'A refinement of the structure of baritefrom Cow Green mine'
loop_
_publ_author_name
  'Colville A. A.'
  'Staudhammer K.'
_chemical_formula_sum  'Ba O4 S'
_chemical_name_mineral  'Baryte'
_symmetry_space_group_name_H-M 'P n m a'
_space_group_IT_number 62
_space_group_crystal_system 'orthorhombic'
loop_
_symmetry_equiv_pos_as_xyz
   'x, y, z'
   '-x+0.5, -y, z+0.5'
   'x+0.5, -y+0.5, -z+0.5'
   '-x, y+0.5, -z'
   '-x, -y, -z'
   'x+0.5, y, -z+0.5'
   '-x+0.5, y+0.5, z+0.5'
   'x, -y+0.5, z'
_cell_length_a        8.88400
_cell_length_b        5.45800
_cell_length_c        7.15300
_cell_angle_alpha    90.0000
_cell_angle_beta     90.0000
_cell_angle_gamma    90.0000
loop_
_atom_site_label
_atom_site_fract_x
_atom_site_fract_y
_atom_site_fract_z
_atom_site_occupancy
_atom_site_B_iso_or_equiv
ba      0.185   0.250   0.158    1.00000    0.679
s      0.437   0.750   0.191    1.00000    0.370
o      0.588   0.750   0.106    1.00000    1.560
o      0.319   0.750   0.051    1.00000    1.629
o      0.419   0.970   0.319    1.00000    0.850
_cell_measurement_wavelength    1.541874
_cell_measurement_radiation   'x-rays'
_exptl_crystal_density_diffrn    4.470000
loop_
_pd_peak_d_spacing
_pd_peak_intensity
     5.571516         21.54
     4.442000        140.40
     4.339098        320.16
     3.898903        510.68
     3.773580         96.07
     3.576500        247.50
     3.445219        984.44
     3.317740        654.21
     3.103947       1000.00
     2.835051        515.88
     2.785758          0.00
     2.736123        104.86
     2.729000        468.32
     2.481251        145.83
     2.450797          5.34
     2.445985         12.41
     2.325235        152.23
     2.302838         50.91
     2.280933         74.26
     2.221000         11.83
     2.211332        269.70
     2.184945          2.16
     2.169549         31.15
     2.121718        465.92
     2.121105        369.52
     2.107612        521.95
     2.104549        409.56
     2.100818         19.35
     2.057197        206.22
     1.977057          0.01
     1.960598          0.08
     1.949452         12.77
     1.932208         80.02
     1.886790          0.88
     1.857172        197.07
     1.788250         43.38
     1.783244          3.15
     1.763195         56.96
     1.759962          0.06
     1.758177         62.17
     1.753088         52.51
     1.750126          3.80
     1.729462         43.90
     1.724397         26.21
     1.722609          0.51
     1.683593         79.28
     1.674730        166.95
     1.669102         39.99
     1.664691          6.85
     1.658870         19.15
     1.644284         13.75
     1.638811        106.44
     1.625161          2.31
     1.595229         98.18
     1.591251         18.88
     1.587180         30.44
     1.557580          0.39
     1.551974          0.44
     1.535365        204.13
     1.530794          2.11
     1.527651         94.63
     1.523258         18.87
     1.514989          7.67
     1.495730         37.44
     1.480667          6.35
     1.474972         99.86
     1.473921         42.53
     1.457761         49.48
     1.449929          8.08
     1.446366          0.59
     1.429016         50.50
     1.427570         96.75
     1.424717         53.14
     1.422306         99.90
     1.417525         26.07
     1.412405          0.60
     1.407418         65.20
     1.401325         99.00
     1.396319          0.18
     1.392879          0.68
     1.383853         55.70
     1.380941          0.50
     1.378526         51.69
     1.375296          0.16
     1.374635          8.33
     1.368061          0.05
     1.367363          1.57
     1.364500         69.58
     1.361720         24.69
     1.349624         59.49
     1.335094          4.42
     1.327011         12.44
     1.325333          1.03
     1.321221         62.15
     1.309661          4.03
     1.304348         10.38
     1.301447         28.40
     1.299634         35.06
     1.288160          5.16
     1.283188         13.29
     1.280426         11.82
     1.274868         15.76
     1.262964        118.31
     1.262390         25.51
     1.261941         64.71
     1.260416          1.13
     1.257860          0.81
     1.254363          2.39
     1.253716         10.65
     1.251550          7.31
     1.249626          0.24
     1.240626          0.45
     1.228095         24.83
     1.225809         11.98
     1.225730          0.22
     1.225398          0.45
     1.222992          5.06
     1.221081         17.57
     1.218456         50.97
     1.218107         11.25
     1.212019          0.18
     1.202696         51.62
     1.197755         31.78
     1.196069         43.41
     1.192167         24.55
     1.181575          0.97
     1.174519          0.30
     1.173900          5.58
     1.171326         19.46
     1.170968          7.18
     1.168344         12.55
     1.164905          7.78
     1.162618          1.15
     1.154824          0.04
     1.151419          7.27
     1.148406         22.59
     1.147558         78.30
     1.144313          3.58
     1.144266          0.01
     1.142353          1.15
     1.140467          6.03
     1.136175          0.13
     1.133886         36.26
     1.126622         43.11
     1.124569         30.47
     1.121705         30.95
     1.120320          0.90
     1.116356          9.72
     1.115667          0.30
     1.114303          0.64
     1.110500         29.11
     1.105968         31.42
     1.105913          1.71
     1.105666          0.13
     1.100558         58.26
     1.099612         61.71
     1.097439         43.46
     1.097354          1.09
     1.095473         53.74
     1.093421          6.71
     1.092472         22.61
     1.091782          6.82
     1.090175         29.46
     1.088204          1.12
     1.084775         13.74
     1.084305          0.48
     1.083887          5.51
     1.079107          4.92
     1.076777         24.48
     1.075826         16.07
     1.071233         11.29
     1.070026         11.94
     1.060859         19.15
     1.060552          8.97
     1.060060         26.14
     1.053806          9.32
     1.052275         12.32
     1.051316          9.79
     1.050409          0.26
     1.048608         32.02
     1.045006          0.31
     1.041080          0.00
     1.036917         12.71
     1.036387          0.41
     1.036070         10.57
     1.035822          6.44
     1.034978         15.14
     1.034649          0.30
     1.031619          6.31
     1.031481         24.98
     1.030052          8.34
     1.028832          8.19
     1.028599         36.91
     1.024950          7.60
     1.018586          0.28
     1.018126          0.02
     1.016857          6.64
     1.016356         10.47
     1.015164          4.61
     1.013889          1.04
     1.011026         36.55
     1.006670          0.16
##############################################################################
###                            Comments                                    ###
##############################################################################
###   Diffraction pattern calculated by Match!. 
###   I/Ic calculated by Match!. 
###   Space group has been derived from given symmetry operations. 
##############################################################################


