##############################################################################
###               Crystal structure data exported by Match!                ###
##############################################################################
###                           Data published by:                           ###
###                                                                        ###
###               COD (Crystallography Open Database)
##############################################################################
data_9016599
_citation_journal_full    'Physical Review B'
_citation_journal_volume  '82'
_citation_page_first  '064110'
_citation_page_last   '064118'
_citation_year  '2010'
_citation_title  'Structure of siderite FeCO3 to 56 GPa and hysteresis of its spin-pairing transitionNote: run P7, P = 18.82 GPa'
loop_
_publ_author_name
  'Lavina B.'
  'Dera P.'
  'Downs R. T.'
  'Yang W.'
  'Sinogeikin S.'
  'Meng Y.'
  'Shen G.'
  'Schiferl D.'
_chemical_formula_sum  'C Fe O3'
_chemical_name_mineral  'Siderite'
_symmetry_space_group_name_H-M 'R -3 c'
_space_group_IT_number 167
_space_group_crystal_system 'trigonal (hexagonal axes)'
loop_
_symmetry_equiv_pos_as_xyz
   'x, y, z'
   'x+0.66667, y+0.33333, z+0.33333'
   'x+0.33333, y+0.66667, z+0.66667'
   '-y, x-y, z'
   '-y+0.66667, x-y+0.33333, z+0.33333'
   '-y+0.33333, x-y+0.66667, z+0.66667'
   '-x+y, -x, z'
   '-x+y+0.66667, -x+0.33333, z+0.33333'
   '-x+y+0.33333, -x+0.66667, z+0.66667'
   'x-y, -y, -z+0.5'
   'x-y+0.66667, -y+0.33333, -z+0.83333'
   'x-y+0.33333, -y+0.66667, -z+0.16667'
   '-x, -x+y, -z+0.5'
   '-x+0.66667, -x+y+0.33333, -z+0.83333'
   '-x+0.33333, -x+y+0.66667, -z+0.16667'
   'y, x, -z+0.5'
   'y+0.66667, x+0.33333, -z+0.83333'
   'y+0.33333, x+0.66667, -z+0.16667'
   '-x, -y, -z'
   '-x+0.66667, -y+0.33333, -z+0.33333'
   '-x+0.33333, -y+0.66667, -z+0.66667'
   'y, -x+y, -z'
   'y+0.66667, -x+y+0.33333, -z+0.33333'
   'y+0.33333, -x+y+0.66667, -z+0.66667'
   'x-y, x, -z'
   'x-y+0.66667, x+0.33333, -z+0.33333'
   'x-y+0.33333, x+0.66667, -z+0.66667'
   '-x+y, y, z+0.5'
   '-x+y+0.66667, y+0.33333, z+0.83333'
   '-x+y+0.33333, y+0.66667, z+0.16667'
   'x, x-y, z+0.5'
   'x+0.66667, x-y+0.33333, z+0.83333'
   'x+0.33333, x-y+0.66667, z+0.16667'
   '-y, -x, z+0.5'
   '-y+0.66667, -x+0.33333, z+0.83333'
   '-y+0.33333, -x+0.66667, z+0.16667'
_cell_length_a        4.57500
_cell_length_b        4.57500
_cell_length_c       14.29000
_cell_angle_alpha    90.0000
_cell_angle_beta     90.0000
_cell_angle_gamma   120.0000
loop_
_atom_site_label
_atom_site_fract_x
_atom_site_fract_y
_atom_site_fract_z
_atom_site_occupancy
_atom_site_B_iso_or_equiv
fe      0.000   0.000   0.000    1.00000    0.592
c      0.000   0.000   0.250    1.00000    0.394
o      0.278   0.000   0.250    1.00000    0.750
_cell_measurement_wavelength    1.541874
_cell_measurement_radiation   'x-rays'
_exptl_crystal_density_diffrn    4.456000
loop_
_pd_peak_d_spacing
_pd_peak_intensity
     3.464987        414.43
     2.653206       1000.00
     2.381667          0.00
     2.287500        229.41
     2.062048        176.97
     1.909015        209.43
     1.732493        114.41
     1.649793        289.37
     1.628409        175.36
     1.489364         17.32
     1.465674        133.81
     1.381091        108.68
     1.344241         24.21
     1.326603         41.18
     1.326460          9.76
     1.320689        110.76
     1.304357         21.02
     1.207474          6.18
     1.190833         30.74
     1.158945         28.47
     1.154996         10.35
     1.147585         53.62
     1.143750         21.48
     1.112139          3.30
     1.095645          0.49
     1.086109         17.01
     1.056275         31.44
     1.050315         72.21
     1.033831         34.78
     1.031024         41.88
     1.025677          0.38
##############################################################################
###                            Comments                                    ###
##############################################################################
###   Invigtut, Greenland
###   Diffraction pattern calculated by Match!. 
###   I/Ic calculated by Match!. 
##############################################################################


