##############################################################################
###               Crystal structure data exported by Match!                ###
##############################################################################
###                           Data published by:                           ###
###                                                                        ###
###               COD (Crystallography Open Database)
##############################################################################
data_4124076
_citation_journal_full    'Journal of the American Chemical Society'
_citation_journal_volume  '126'
_citation_page_first  '9769'
_citation_page_last   '9775'
_citation_year  '2004'
_citation_title  'Chemical evaluation of hypothetical uninodal zeolites'
loop_
_publ_author_name
  'Foster M.D.'
  'Bell R.G.'
  'Friedrichs O.D.'
  'Paz F.A.A.'
  'Klinowski J.'
_chemical_formula_sum  'O2 Si'
_chemical_name_common  'Silica'
_symmetry_space_group_name_H-M 'P 1'
_space_group_IT_number 1
_space_group_crystal_system 'triclinic'
loop_
_symmetry_equiv_pos_as_xyz
   'x, y, z'
_cell_length_a        8.02064
_cell_length_b        8.09196
_cell_length_c        9.46642
_cell_angle_alpha    90.8345
_cell_angle_beta     90.2491
_cell_angle_gamma   119.5764
_cell_formula_units_Z 18
loop_
_atom_site_label
_atom_site_fract_x
_atom_site_fract_y
_atom_site_fract_z
_atom_site_occupancy
_atom_site_B_iso_or_equiv
o      0.173   0.321   0.072    1.00000    1.000
si      0.294   0.304   0.549    1.00000    1.000
o      0.457   0.991   0.519    1.00000    1.000
o      0.163   0.864   0.572    1.00000    1.000
si      0.340   0.013   0.381    1.00000    1.000
si      0.621   0.004   0.876    1.00000    1.000
o      0.834   0.201   0.905    1.00000    1.000
o      0.980   0.480   0.520    1.00000    1.000
o      0.470   0.040   0.240    1.00000    1.000
o      0.671   0.810   0.570    1.00000    1.000
si      0.334   0.344   0.885    1.00000    1.000
o      0.319   0.184   0.681    1.00000    1.000
o      0.983   0.472   0.243    1.00000    1.000
o      0.793   0.686   0.908    1.00000    1.000
o      0.115   0.341   0.578    1.00000    1.000
o      0.798   0.658   0.176    1.00000    1.000
si      0.643   0.990   0.212    1.00000    1.000
o      0.311   0.153   0.177    1.00000    1.000
si      0.997   0.341   0.719    1.00000    1.000
si      0.286   0.972   0.712    1.00000    1.000
si      0.597   0.667   0.417    1.00000    1.000
o      0.498   0.985   0.736    1.00000    1.000
si      0.004   0.683   0.214    1.00000    1.000
o      0.171   0.862   0.859    1.00000    1.000
o      0.459   0.460   0.747    1.00000    1.000
o      0.131   0.826   0.348    1.00000    1.000
o      0.124   0.321   0.847    1.00000    1.000
o      0.313   0.132   0.907    1.00000    1.000
o      0.647   0.824   0.838    1.00000    1.000
si      0.311   0.017   0.049    1.00000    1.000
o      0.980   0.538   0.744    1.00000    1.000
o      0.131   0.797   0.074    1.00000    1.000
o      0.166   0.331   0.357    1.00000    1.000
o      0.603   0.846   0.344    1.00000    1.000
o      0.820   0.653   0.407    1.00000    1.000
si      0.976   0.350   0.382    1.00000    1.000
o      0.989   0.516   0.010    1.00000    1.000
si      0.983   0.653   0.887    1.00000    1.000
si      0.645   0.669   0.731    1.00000    1.000
o      0.831   0.660   0.686    1.00000    1.000
o      0.836   0.196   0.191    1.00000    1.000
si      0.673   0.021   0.546    1.00000    1.000
o      0.316   0.201   0.408    1.00000    1.000
o      0.463   0.488   0.015    1.00000    1.000
si      0.960   0.308   0.047    1.00000    1.000
o      0.461   0.521   0.527    1.00000    1.000
o      0.652   0.869   0.075    1.00000    1.000
si      0.670   0.674   0.058    1.00000    1.000
si      0.948   0.664   0.542    1.00000    1.000
o      0.782   0.152   0.688    1.00000    1.000
o      0.799   0.132   0.408    1.00000    1.000
o      0.509   0.537   0.252    1.00000    1.000
si      0.303   0.346   0.216    1.00000    1.000
o      0.501   0.994   0.024    1.00000    1.000
_cell_measurement_wavelength    1.541874
_cell_measurement_radiation   'x-rays'
_exptl_crystal_density_diffrn    3.361000
loop_
_pd_peak_d_spacing
_pd_peak_intensity
     9.464583          0.95
     7.036265          0.90
     6.974923          1.20
     6.961569          1.40
     5.699444          1.19
     5.650829          1.36
     5.623448          0.44
     5.595523          0.13
     5.592559          8.17
     5.579675          0.51
     4.732292          0.56
     4.053106       1000.00
     4.045245        966.22
     4.010272        986.93
     3.962210          0.50
     3.940399          0.01
     3.924210          0.47
     3.903212          3.57
     3.892315          0.88
     3.892122          1.11
     3.751418          0.53
     3.739240          0.57
     3.700779          0.46
     3.700524          1.79
     3.698207          1.50
     3.686790          2.09
     3.518132          0.51
     3.487462          0.41
     3.480785          0.07
     3.318568          0.09
     3.286554          0.30
     3.277176          1.40
     3.272984          5.12
     3.260771          2.84
     3.258385          2.20
     3.154861          2.45
     3.107319          1.27
     3.097014          0.15
     3.065980          1.03
     3.053271          1.02
     3.052992          0.71
     3.050192          0.03
     2.899612          1.20
     2.888917          4.42
     2.879807          1.02
     2.867340          3.13
     2.860278          1.12
     2.858307          1.69
     2.849722          1.71
     2.825415          1.14
     2.811724          0.24
     2.797762          1.12
     2.796280          6.06
     2.789837          1.12
     2.657589          0.11
     2.653892          0.20
     2.647599          0.08
     2.641758          0.19
     2.627609          1.99
     2.625463          0.79
     2.571767         40.91
     2.566498         26.52
     2.561238          0.27
     2.552172          0.20
     2.545702          0.53
     2.544318          1.27
     2.538348         33.40
     2.536965          1.14
     2.536894         23.85
     2.530346         54.98
     2.529510          1.42
     2.526761         20.80
     2.512541        160.82
     2.505299         99.29
     2.484745        113.73
     2.474374        131.64
     2.470552        104.67
     2.467215        112.60
     2.371548          0.70
     2.366146          0.33
     2.355192          1.69
     2.345422        104.20
     2.344317          0.42
     2.336800          0.12
     2.331406          0.08
     2.330895          0.75
     2.327787          1.23
     2.326674          1.54
     2.324974         77.88
     2.324307          0.31
     2.320523        102.25
     2.318144          0.03
     2.304900          3.32
     2.298431          2.06
     2.298073          1.22
     2.296431          1.57
     2.295380          0.58
     2.295182          0.29
     2.293715          1.21
     2.289657          0.45
     2.286843          1.45
     2.266417          0.94
     2.264820          0.24
     2.256785          0.80
     2.255867         21.07
     2.250941          1.05
     2.250770          0.85
     2.249822          0.43
     2.244228          0.57
     2.236352         17.16
     2.231735         13.82
     2.229827          0.73
     2.117730          0.08
     2.097775          0.41
     2.088280          0.69
     2.085593          0.66
     2.078775          0.78
     2.075861          0.71
     2.060338          0.09
     2.055354          0.14
     2.052432          0.12
     2.047801          0.95
     2.045567          1.20
     2.041719          0.63
     2.037095          0.85
     2.034042          0.18
     2.029717          0.32
     2.026920          0.04
     2.026846          1.98
     2.026553         41.67
     2.022623         26.02
     2.018702          0.87
     2.017429          0.31
     2.014392          0.51
     2.013977          0.83
     2.013226          0.50
     2.011322          0.03
     2.011006          0.05
     2.005136         40.70
     1.989298          0.34
     1.983807          0.19
     1.981105          0.18
     1.974062          0.34
     1.972165          0.94
     1.970199         84.34
     1.963312          0.30
     1.962105         91.30
     1.959888          0.59
     1.951606          0.34
     1.951063          0.47
     1.949014          0.05
     1.946158         92.38
     1.946061          0.01
     1.940548          0.13
     1.936236          0.32
     1.929497          0.23
     1.927233          0.28
     1.918369          0.73
     1.915624          0.38
     1.907155         25.99
     1.903485         17.45
     1.902363         25.54
     1.900721         36.73
     1.899815          1.53
     1.894907          0.46
     1.894101         28.71
     1.893196          1.67
     1.892917          0.02
     1.888895         13.45
     1.888064          0.12
     1.887137          0.38
     1.883610          1.43
     1.875709          0.34
     1.874483          0.20
     1.869620          0.80
     1.865174          0.68
     1.864186          0.40
     1.859892          0.15
     1.850389          0.15
     1.850262          0.44
     1.849104          0.89
     1.843395          0.32
     1.836801          0.11
     1.832994          0.32
     1.829270          0.66
     1.823934          0.96
     1.820741          0.39
     1.819178          0.48
     1.816423          0.51
     1.813416          0.33
     1.805863          0.17
     1.798416          0.39
     1.792599          1.87
     1.791384          0.09
     1.791099          0.30
     1.785726          0.40
     1.785596          0.51
     1.785224          3.89
     1.784639          7.50
     1.784191          0.08
     1.780951          7.69
     1.780842          4.98
     1.779627          0.39
     1.772775          0.06
     1.765186          0.83
     1.759066          0.03
     1.758228          7.73
     1.757107          0.36
     1.752463         10.28
     1.751656          0.14
     1.751515         10.22
     1.750280          0.35
     1.749289         10.81
     1.743731          0.29
     1.740392          0.46
     1.735450          1.05
     1.727573          0.04
     1.724050          0.00
     1.723510          0.05
     1.719827         50.38
     1.718938          0.46
     1.714654          0.26
     1.713987         47.69
     1.713453          0.90
     1.710830          0.51
     1.709940          3.21
     1.708966          0.21
     1.705095          0.71
     1.702876          0.13
     1.695571         49.71
     1.691704         35.64
     1.690704         58.44
     1.688977         52.17
     1.681979          0.19
     1.680475          0.23
     1.674194          0.67
     1.672983          0.81
     1.671309          0.06
     1.669479          0.61
     1.666967          0.05
     1.665105          0.41
     1.661552          0.11
     1.659284          0.21
     1.658913          0.60
     1.657710          0.13
     1.654475          0.11
     1.653742          0.21
     1.652989          1.66
     1.651994          0.45
     1.649967          0.50
     1.647480          0.15
     1.645469          0.11
     1.645234          0.56
     1.644950          0.25
     1.643821          0.23
     1.643277         14.56
     1.642846          0.09
     1.640950          0.09
     1.639199          0.37
     1.638588          7.64
     1.636492          7.18
     1.630386          0.54
     1.629193          0.75
     1.612228          0.04
     1.609588          0.09
     1.608502          0.03
     1.605064          0.10
     1.594447          0.08
     1.594188          0.16
     1.593389          0.02
     1.590979          1.87
     1.590491          0.25
     1.585808          0.21
     1.584270          0.33
     1.582663          0.89
     1.581080          0.68
     1.579152          0.83
     1.577431        114.61
     1.573708          0.10
     1.571817          0.02
     1.570737          0.36
     1.570384          0.19
     1.556257          0.17
     1.553659          1.06
     1.553385          0.07
     1.552603          1.60
     1.549095          0.41
     1.548507          0.07
     1.547205          0.38
     1.545577          1.73
     1.542985          0.60
     1.541605          0.42
     1.540347          1.50
     1.536521          1.65
     1.535918          0.78
     1.535364         26.69
     1.535184          0.01
     1.534983          0.90
     1.534778          0.75
     1.534202          0.59
     1.534080         27.73
     1.532990          0.75
     1.532950          0.92
     1.531337          6.01
     1.531273          0.20
     1.530313          0.28
     1.530216          0.08
     1.529056          0.09
     1.527737          0.81
     1.527626          0.08
     1.527390          0.24
     1.526636          0.31
     1.526496          0.18
     1.525947          3.86
     1.525769         23.04
     1.525096          0.75
     1.523978          0.40
     1.522415         23.49
     1.520291          0.34
     1.520189          0.24
     1.520078          0.35
     1.518851         23.54
     1.518648          0.45
     1.517633          0.40
     1.517521          0.05
     1.517163          5.69
     1.516781         27.26
     1.516542          4.11
     1.514665          0.68
     1.514150          0.94
     1.513725          1.94
     1.512659          2.70
     1.511046          0.36
     1.510857          0.97
     1.510069          0.33
     1.510024          0.25
     1.509129         11.30
     1.507825          0.09
     1.505946          1.58
     1.505268          0.43
     1.502602          0.04
     1.502281          0.21
     1.502085          0.17
     1.500929          0.92
     1.498172          0.95
     1.497253          0.78
     1.497169          0.51
     1.495111          0.62
     1.493463          0.22
     1.491556          0.52
     1.491107          0.15
     1.490968          1.90
     1.488565          0.15
     1.488497          0.36
     1.487057          0.01
     1.479442         11.93
     1.477549          0.11
     1.476862         27.83
     1.470962          0.05
     1.470107         23.29
     1.468938          0.03
     1.467097          0.54
     1.465803          8.78
     1.462671          0.24
     1.462536         13.51
     1.460781         19.89
     1.459386          0.41
     1.458894          0.10
     1.458478          0.05
     1.453170          0.80
     1.452053          1.34
     1.451660          0.15
     1.450541          0.23
     1.449806          0.56
     1.447016          0.42
     1.445513          0.19
     1.445391          0.52
     1.445302          0.88
     1.444458          0.47
     1.443530          0.02
     1.443503          0.04
     1.443058          0.03
     1.441876          1.13
     1.439904          1.13
     1.437999          0.07
     1.433670          1.12
     1.430139          0.50
     1.429154          0.70
     1.426560          1.04
     1.424861         34.22
     1.424652          0.39
     1.424510          0.33
     1.423484          0.41
     1.423247          0.39
     1.422695          0.51
     1.421081          0.05
     1.419167          0.42
     1.412707          0.90
     1.407253          0.41
     1.405862          0.34
     1.398881          0.77
     1.398140         33.40
     1.396469          0.29
     1.395858          0.05
     1.394985          0.14
     1.394919         40.43
     1.392314          0.22
     1.392112          0.08
     1.391378         45.98
     1.389509         35.02
     1.388076          0.34
     1.382724          0.25
     1.382140         32.64
     1.379424          0.65
     1.378635          2.48
     1.377442          0.35
     1.376346          0.68
     1.376086         37.50
     1.374054         23.73
     1.373510          0.12
     1.372252          0.15
     1.372159          0.62
     1.370549          0.43
     1.369985          0.42
     1.369982         40.05
     1.369944         41.75
     1.368279          0.71
     1.368145         41.24
     1.366247          0.09
     1.366206         33.14
     1.366037          0.00
     1.365856         39.31
     1.365570          0.42
     1.365153         29.62
     1.363040         30.53
     1.361322          0.12
     1.360437          0.34
     1.357644          0.41
     1.357129          0.19
     1.356013          3.21
     1.352529          1.09
     1.352083          0.10
     1.351763          0.67
     1.351225          0.38
     1.351035          7.49
     1.349704          0.10
     1.348415         12.99
     1.347797          1.44
     1.347498          0.73
     1.346766          1.35
     1.346149          0.51
     1.346116          0.68
     1.345408          0.43
     1.344973          0.37
     1.344949          0.43
     1.344930          1.06
     1.344498          7.74
     1.344066          0.71
     1.342900          0.91
     1.341850          0.57
     1.341489          0.21
     1.341005          0.55
     1.340774          5.60
     1.337794          1.07
     1.337627          0.52
     1.336757          7.29
     1.336234          0.28
     1.333978          0.20
     1.333620          1.19
     1.333272          9.68
     1.332544          0.13
     1.332259          0.20
     1.330676          0.20
     1.328794          0.01
     1.328717          0.08
     1.326946          0.16
     1.326079          0.28
     1.325850          0.30
     1.324410          0.10
     1.324096          0.13
     1.323799          0.08
     1.323088          0.06
     1.322938          8.33
     1.322833          0.04
     1.321146          0.24
     1.320879          0.33
     1.320737         23.44
     1.320511          0.09
     1.320488          4.45
     1.320368          0.35
     1.319449          0.44
     1.319266          5.25
     1.318171          5.58
     1.317121          0.17
     1.314160          5.55
     1.313804          0.05
     1.313466         14.77
     1.312732          0.10
     1.312358          3.57
     1.311088          3.13
##############################################################################
###                            Comments                                    ###
##############################################################################
###   Diffraction pattern calculated by Match!. 
###   I/Ic calculated by Match!. 
###   Space group has been derived from given symmetry operations. 
##############################################################################


