##############################################################################
###               Crystal structure data exported by Match!                ###
##############################################################################
###                           Data published by:                           ###
###                                                                        ###
###               COD (Crystallography Open Database)
##############################################################################
data_9014682
_citation_journal_full    'Zeitschrift fur Kristallographie'
_citation_journal_volume  '169'
_citation_page_first  '289'
_citation_page_last   '294'
_citation_year  '1969'
_citation_title  'Refinement of pucherite, BiVO4'
loop_
_publ_author_name
  'Granzin J.'
  'Pohl D.'
_chemical_formula_sum  'Bi O4 V'
_chemical_name_mineral  'Pucherite'
_symmetry_space_group_name_H-M 'P n c a'
_space_group_IT_number 60
_space_group_crystal_system 'orthorhombic'
loop_
_symmetry_equiv_pos_as_xyz
   'x, y, z'
   '-x+0.5, -y, z'
   'x+0.5, -y+0.5, -z+0.5'
   '-x, y+0.5, -z+0.5'
   '-x, -y, -z'
   'x+0.5, y, -z'
   '-x+0.5, y+0.5, z+0.5'
   'x, -y+0.5, z+0.5'
_cell_length_a        5.32800
_cell_length_b        5.05200
_cell_length_c       12.00300
_cell_angle_alpha    90.0000
_cell_angle_beta     90.0000
_cell_angle_gamma    90.0000
loop_
_atom_site_label
_atom_site_fract_x
_atom_site_fract_y
_atom_site_fract_z
_atom_site_occupancy
_atom_site_B_iso_or_equiv
bi      0.250   0.000   0.110    1.00000    0.863
v      0.250   0.000   0.394    1.00000    0.810
o      0.083   0.258   0.466    1.00000    1.086
o      0.458   0.143   0.308    1.00000    1.128
_cell_measurement_wavelength    1.541874
_cell_measurement_radiation   'x-rays'
_exptl_crystal_density_diffrn    6.659000
loop_
_pd_peak_d_spacing
_pd_peak_intensity
     6.001500        107.90
     4.656365        430.15
     3.984394        454.99
     3.506109       1000.00
     3.136514         40.88
     3.128495          0.69
     3.000750        257.04
     2.702937        888.83
     2.664000        188.54
     2.614594         21.01
     2.526000        170.58
     2.434896         21.59
     2.356450          1.34
     2.328182          4.42
     2.322049         22.46
     2.312311        177.73
     2.242294          8.08
     2.193429         10.78
     2.168258        128.89
     2.133395        232.47
     2.030457         64.77
     2.008324         38.35
     2.000500         25.56
     1.992197        217.25
     1.982556          0.90
     1.932466        207.96
     1.872837         70.86
     1.853305          1.25
     1.832997        202.93
     1.816665         22.29
     1.811990          0.27
     1.756056          0.15
     1.753054         16.41
     1.702997         69.08
     1.681654         76.90
     1.667667         31.91
     1.666438          0.36
     1.659396         86.25
     1.654138          0.06
     1.623735          2.01
     1.613775          0.31
     1.599679         43.37
     1.591528         79.66
     1.568257         37.52
     1.564247        156.09
     1.553209        188.65
     1.552122         15.92
     1.551147          0.76
     1.545446        157.81
     1.528374          4.91
     1.525052          0.00
     1.504440         42.83
     1.500375         14.69
     1.490178        135.34
     1.462895          0.43
     1.456862          0.38
     1.444205         16.45
     1.442318          0.55
     1.423448          0.72
     1.415758          0.06
     1.413543         31.08
     1.412059         46.84
     1.388581          1.20
     1.386490          0.58
     1.385023          0.42
     1.378620         18.10
     1.373936          8.65
     1.370947          0.76
     1.365600          0.10
     1.351469         34.13
     1.341101          7.05
     1.334665          7.93
     1.332000         27.40
     1.328131          9.47
     1.307643          3.30
     1.307297         30.47
     1.300358          0.81
     1.289978         25.35
     1.289491         21.17
     1.287985          0.01
     1.286085          0.26
     1.284486          0.15
     1.280633         22.68
     1.265610          0.05
     1.263000         22.83
     1.259311          1.13
     1.253755         13.75
     1.253308          1.57
     1.252224          0.87
     1.252215          0.05
     1.242943          0.02
     1.235928          4.62
     1.226024          7.27
     1.224385         37.40
     1.222552          0.11
     1.217448         34.99
     1.215714         36.28
     1.203960         31.23
     1.201480          0.10
     1.200300         14.22
     1.198375         77.66
     1.197428          0.02
     1.183566          0.12
     1.178225         37.36
     1.175545         29.73
     1.174774          0.00
     1.172589          0.07
     1.172049         69.63
     1.170954          4.98
     1.168703         49.71
     1.164091         25.82
     1.161024         30.25
     1.160669         28.95
     1.159808          0.06
     1.156155          3.88
     1.151505          0.31
     1.146127          4.52
     1.141238         33.01
     1.140714          0.49
     1.137263          2.21
     1.136114          0.02
     1.134949         26.37
     1.131753          0.03
     1.130237          0.18
     1.121147          0.82
     1.117724          0.01
     1.108717          8.90
     1.108466          0.11
     1.097465          0.00
     1.096714         44.79
     1.096272          0.20
     1.095243          0.97
     1.094349         17.82
     1.093930          0.00
     1.089023          4.99
     1.084129         20.24
     1.082945          0.01
     1.078423          0.00
     1.069543          0.20
     1.067967          8.79
     1.066698         45.56
     1.066586          0.31
     1.062360          9.91
     1.057698          0.22
     1.049190          8.68
     1.047138         17.31
     1.045837         44.74
     1.045505         10.93
     1.044701          0.22
     1.043715         13.30
     1.043457          0.31
     1.042832          0.02
     1.040767         13.72
     1.038747         22.08
     1.032654          0.03
     1.030696          0.02
     1.029826          0.57
     1.029224          0.07
     1.027271          0.06
     1.025939          0.41
     1.025507          0.02
     1.015228         14.44
     1.014459         19.92
     1.010812          5.69
     1.008961         33.98
     1.006839          6.61
##############################################################################
###                            Comments                                    ###
##############################################################################
###   Schneeberg, Saxony
###   Diffraction pattern calculated by Match!. 
###   I/Ic calculated by Match!. 
###   Space group has been derived from given symmetry operations. 
##############################################################################


