##############################################################################
###               Crystal structure data exported by Match!                ###
##############################################################################
###                           Data published by:                           ###
###                                                                        ###
###               COD (Crystallography Open Database)
##############################################################################
data_8104011
_citation_journal_full    'Zeitschrift fuer Kristallographie (149,1979-)'
_citation_journal_volume  '218'
_citation_page_first  '345'
_citation_page_last   '350'
_citation_year  '2003'
_citation_title  'Crystal structure of new hexahydrate dicobalt pyrophosphate Co2 P2 O7 * 6(H2 O): comparison with Co2 P2 O7 * 2(H2 O), alpha-, beta- and gamma-(Co2 P2 O7)'
loop_
_publ_author_name
  'Capitelli F.'
  'Harcharras M.'
  'Moliterni A.G.G.'
  'Ennaciri A.'
  'Assaaoudi H.'
  'Bertolasi V.'
_chemical_formula_sum  'Co2 H12 O13 P2'
_chemical_name_common  'Co2 (P2 O7) (H2 O)6'
_symmetry_space_group_name_H-M 'P 1 21/n 1'
_space_group_IT_number 14
_space_group_crystal_system 'monoclinic'
loop_
_symmetry_equiv_pos_as_xyz
   'x, y, z'
   '-x+0.5, y+0.5, -z+0.5'
   '-x, -y, -z'
   'x+0.5, -y+0.5, z+0.5'
_cell_length_a        7.20770
_cell_length_b       18.33730
_cell_length_c        7.67620
_cell_angle_alpha    90.0000
_cell_angle_beta     92.4356
_cell_angle_gamma    90.0000
_cell_formula_units_Z 4
loop_
_atom_site_label
_atom_site_fract_x
_atom_site_fract_y
_atom_site_fract_z
_atom_site_occupancy
_atom_site_B_iso_or_equiv
o      0.204   -0.024   0.475    1.00000    1.000
h      0.172   -0.011   0.569    1.00000    1.000
p      0.299   0.096   -0.200    1.00000    1.000
h      0.231   0.369   -0.223    1.00000    1.000
o      0.025   0.281   0.004    1.00000    1.000
o      0.592   0.240   -0.066    1.00000    1.000
co      0.304   0.255   -0.028    1.00000    1.000
o      0.322   0.187   0.188    1.00000    1.000
co      0.000   0.000   0.000    1.00000    1.000
co      0.500   0.000   0.500    1.00000    1.000
h      -0.010   0.310   0.075    1.00000    1.000
h      0.475   0.336   0.199    1.00000    1.000
o      0.220   0.173   -0.196    1.00000    1.000
o      0.294   0.333   -0.231    1.00000    1.000
h      -0.214   0.100   -0.136    1.00000    1.000
p      0.331   0.104   0.177    1.00000    1.000
o      -0.203   0.079   -0.045    1.00000    1.000
o      0.143   0.068   0.189    1.00000    1.000
h      0.633   0.262   -0.146    1.00000    1.000
o      0.373   0.339   0.152    1.00000    1.000
h      -0.024   0.291   -0.090    1.00000    1.000
h      0.391   0.340   -0.276    1.00000    1.000
o      0.147   0.039   -0.212    1.00000    1.000
h      0.359   0.378   0.106    1.00000    1.000
o      0.446   0.087   -0.332    1.00000    1.000
o      0.480   0.074   0.299    1.00000    1.000
h      0.160   0.001   0.397    1.00000    1.000
o      0.408   0.084   -0.012    1.00000    1.000
h      0.668   0.239   0.014    1.00000    1.000
h      -0.307   0.078   -0.011    1.00000    1.000
_cell_measurement_wavelength    1.541874
_cell_measurement_radiation   'x-rays'
_exptl_crystal_density_diffrn    2.620000
loop_
_pd_peak_d_spacing
_pd_peak_intensity
     9.168650        129.04
     7.075381        108.24
     6.702859        143.82
     5.882619          1.75
     5.663252        405.47
     5.364687         12.09
     5.148867        790.61
     5.141785        101.26
     4.950839        532.76
     4.779987          1.60
     4.660041         36.50
     4.630315        621.23
     4.584325        166.84
     4.484707        429.66
     4.032003         10.77
     3.934922          8.69
     3.934761         86.01
     3.867192        142.61
     3.834633         74.67
     3.753442         12.36
     3.600594         54.21
     3.537690          5.13
     3.533129        298.41
     3.485162         80.16
     3.421787         99.60
     3.386688          4.41
     3.351430        249.12
     3.308617        204.78
     3.273109          0.09
     3.268048         73.32
     3.261072         18.12
     3.248327         49.93
     3.225666        150.47
     3.159301         14.30
     3.127075        144.79
     3.116573          5.83
     3.102356         50.56
     3.056217         77.39
     3.027600         19.13
     3.027381          1.06
     3.001799          1.62
     2.985774         85.58
     2.941310       1000.00
     2.921857          7.36
     2.913285         40.30
     2.840039          6.49
     2.839090          0.07
     2.831626         67.18
     2.813333         12.63
     2.754545         36.89
     2.692386         46.62
     2.685674         50.10
     2.682344          9.35
     2.655524         83.12
     2.654099         10.76
     2.650415         49.25
     2.627966          1.50
     2.627166        142.33
     2.574434         72.63
     2.570892         88.64
     2.569319          2.43
     2.545992          7.02
     2.531936         21.45
     2.511321         46.56
     2.478988         11.03
     2.475419         30.91
     2.463948          3.73
     2.462494         14.24
     2.461786         70.44
     2.458800          0.22
     2.456244          1.82
     2.442061         37.51
     2.420689         27.57
     2.414286         52.46
     2.389993          2.29
     2.380091         26.03
     2.377478          0.00
     2.369808          1.11
     2.359791         50.87
     2.358460          1.85
     2.357744          0.20
     2.353961          0.00
     2.334140         44.30
     2.330020         62.47
     2.322133          3.36
     2.319077        293.66
     2.315157          1.96
     2.301366          0.01
     2.300751         21.93
     2.292162         24.80
     2.286506         20.10
     2.267769         65.93
     2.263554         88.42
     2.250577         11.50
     2.248274         10.11
     2.246652          5.26
     2.246503          8.47
     2.242353          4.12
     2.234286          2.94
     2.232732          0.00
     2.215769        139.01
     2.212542         10.11
     2.197574          6.83
     2.196171          1.82
     2.184184         25.06
     2.168264         23.90
     2.165060         56.77
     2.163059          8.41
     2.155328          0.07
     2.126521         38.06
     2.122680         29.52
     2.118297         36.91
     2.113402         78.29
     2.110538         48.48
     2.107823          1.92
     2.105167         36.59
     2.097200          8.38
     2.093557          3.94
     2.085440          7.51
     2.072512          0.93
     2.069363         89.64
     2.061523          0.19
     2.058073         10.81
     2.055070          4.91
     2.032662         10.65
     2.031287         15.72
     2.029625        129.79
     2.028866         14.96
     2.023518          0.68
     2.016001         50.46
     2.009337          1.39
     2.008446         26.69
     1.994963         78.52
     1.994901          1.60
     1.985095          2.48
     1.969171          2.44
     1.967461        179.87
     1.967381        145.94
     1.964594          3.44
     1.960873          0.10
     1.960516         23.11
     1.960081          0.51
     1.951094         10.50
     1.938373          0.16
     1.933596          2.70
     1.929871          0.53
     1.926213         26.42
     1.917316         88.88
     1.908510          8.82
     1.907816        132.10
     1.906921         28.67
     1.904731         20.47
     1.898112          0.68
     1.894184         16.98
     1.890127          2.28
     1.887751          2.18
     1.887467         24.36
     1.885150         10.00
     1.876721          4.81
     1.876542         39.52
     1.874132          1.14
     1.866741          3.56
     1.864862          4.94
     1.862972          0.00
     1.847423          1.04
     1.840324          3.74
     1.834879          1.79
     1.834782          0.29
     1.833730          7.11
     1.830700          0.26
     1.829596          1.50
     1.829427          7.17
     1.824402          0.21
     1.818983          0.04
     1.805763          0.39
     1.800297         10.23
     1.799265          4.65
     1.797903          0.00
     1.791683         62.38
     1.790515          0.34
     1.788229          7.27
     1.786272          2.51
     1.785338          9.38
     1.783459          0.49
     1.779786          1.27
     1.777021         10.89
     1.773254          3.76
     1.769770          3.01
     1.768845         70.09
     1.766564          7.27
     1.761284          0.25
     1.760525         13.23
     1.756192          1.64
     1.755158          2.85
     1.753846          5.86
     1.753732          0.99
     1.746135          1.30
     1.742581          0.71
     1.737473          0.31
     1.737406          3.23
     1.736413          0.06
     1.735666          0.00
     1.735163         46.66
     1.733600          1.56
     1.728584          4.95
     1.727179         20.53
     1.726950         11.19
     1.722984          7.79
     1.719792          0.47
     1.716531          0.84
     1.716289          0.22
     1.715428          7.48
     1.713928          9.71
     1.712734         13.94
     1.710893          1.71
     1.706608          0.04
     1.706491          0.23
     1.705995          0.08
     1.702391          0.05
     1.699679          6.78
     1.699130          9.06
     1.698958          2.35
     1.693344         14.16
     1.684745          9.47
     1.675715         20.80
     1.671653          0.00
     1.671285          5.69
     1.670236          3.43
     1.667818          0.05
     1.665970        194.67
     1.663265          3.66
     1.658359          8.44
     1.657746          0.36
     1.656948          6.41
     1.656465          0.22
     1.654308          0.16
     1.651509          0.26
     1.650766          2.93
     1.650280         49.71
     1.650225         21.89
     1.650141         34.36
     1.639973          0.01
     1.636555         37.96
     1.634024         21.89
     1.630536         20.01
     1.630236         55.31
     1.628989         12.19
     1.626395          0.29
     1.624164          0.06
     1.624079          5.41
     1.623753          0.49
     1.622484          7.81
     1.618800          0.67
     1.616084          9.32
     1.612833          2.86
     1.611424          5.62
     1.610594         54.59
     1.607338          0.00
     1.605899          2.79
     1.605398         58.12
     1.604909          0.08
     1.604471          5.12
     1.603630         16.17
     1.599231          7.16
     1.597533          0.70
     1.596814          7.10
     1.596751          0.49
     1.593671          1.63
     1.593329         12.49
     1.591939          0.27
     1.591907          1.05
     1.588069          3.71
     1.585767          3.95
     1.579650          5.71
     1.572265          0.82
     1.569324          2.83
     1.564469         16.43
     1.563537          4.19
     1.559460         16.70
     1.559367         11.31
     1.558287         15.05
     1.553347          9.01
     1.552736          6.80
     1.551178          9.48
     1.551136         32.65
     1.547185         17.34
     1.547084         33.13
     1.543438          3.45
     1.538174          0.02
     1.531325          6.92
     1.530645         10.42
     1.528811          3.97
     1.528515          8.69
     1.528108         62.46
     1.525491          0.23
     1.524830          4.80
     1.523432          0.00
     1.514766          0.01
     1.514352          6.89
     1.513800         33.24
     1.513691         32.77
     1.513361          0.01
     1.512829          0.28
     1.512758          0.59
     1.509990         16.63
     1.509688          1.13
     1.509257          2.97
     1.508233         11.85
     1.505633          1.88
     1.502123          1.96
     1.500900         13.93
     1.500654          2.51
     1.498649          0.55
     1.497278          0.00
     1.494902         12.04
     1.494823         18.07
     1.493157         39.83
     1.492887         46.27
     1.490360          2.09
     1.490038          2.57
     1.489218          1.66
     1.487726          0.68
     1.487376         19.88
     1.484328          0.11
     1.483702         21.00
     1.482525         12.47
     1.482507         49.78
     1.479156          5.08
     1.476925          0.77
     1.471537          0.49
     1.470655         16.25
     1.469649          0.04
     1.469307         29.37
     1.469006          6.15
     1.468182          0.64
     1.466354         30.62
     1.466301          5.30
     1.464789          3.85
     1.463292          0.01
     1.460929         15.25
     1.458878          2.91
     1.457184          0.33
     1.456642         27.43
     1.454593          5.27
     1.453687         11.59
     1.452011         13.04
     1.451416          0.36
     1.450211          0.15
     1.449513          0.08
     1.447271          0.81
     1.445204          0.38
     1.442968          5.02
     1.439523          9.87
     1.438891          1.08
     1.438394          1.65
     1.437081          8.88
     1.435816          0.30
     1.434229          0.23
     1.431793          0.02
     1.428918          4.34
     1.427595          0.57
     1.427387          0.12
     1.426534          0.72
     1.426126         20.61
     1.425783          7.90
     1.424848          6.37
     1.422791          0.55
     1.422237          0.86
     1.420020          0.02
     1.419545         14.18
     1.416079          3.17
     1.415871          9.01
     1.415813          7.13
     1.415076          7.07
     1.414774         15.68
     1.412151          0.37
     1.409921         38.22
     1.409574         19.73
     1.406667          0.07
     1.404707          5.21
     1.404145          0.01
     1.401849          0.54
     1.400669          6.26
     1.400604          0.60
     1.400339          1.06
     1.398937          3.52
     1.398715          0.61
     1.398046          1.02
     1.396919          0.02
     1.396371          0.17
     1.396296          0.31
     1.395427          3.27
     1.390182          6.66
     1.389202          0.37
     1.389011          7.24
     1.388604          5.81
     1.388506         13.40
     1.387680          2.78
     1.387292          0.88
     1.386030          4.79
     1.384255          0.20
     1.384054          0.28
     1.379528          2.08
     1.378763          0.05
     1.378335          3.09
     1.377273          3.01
     1.376822          1.11
     1.376719          3.39
     1.374302          0.10
     1.374025          0.42
     1.373970          0.53
     1.372634          6.95
     1.370888          0.09
     1.369223          6.73
     1.369021          1.07
     1.368227          0.47
     1.367976          2.61
     1.367708          0.60
     1.364928          4.63
     1.364908          3.37
     1.364193         10.22
     1.363754          4.93
     1.362906          0.02
     1.362853          6.55
     1.362110          4.35
     1.360303         12.55
     1.356198         11.79
     1.355401          0.30
     1.353599          1.56
     1.352578          2.09
     1.350628          0.02
     1.349102          3.70
     1.348217          0.56
     1.346193          0.65
     1.344001          2.55
     1.343074          0.06
     1.343071          2.20
     1.342837          4.22
     1.342292          6.79
     1.341172          1.38
     1.340572          3.89
     1.337599          0.50
     1.337403          2.05
     1.335980          2.45
     1.334953          0.09
     1.334548          0.69
     1.330204          2.56
     1.329499          0.00
     1.327762          1.62
     1.327049         13.76
     1.326320          8.88
     1.325208          0.68
     1.323837          0.54
     1.323645          0.20
     1.323245          0.00
     1.321539          0.16
     1.321250          3.77
     1.318174         24.15
     1.316033          0.07
     1.315632          1.08
     1.314781          1.71
     1.313983         12.42
     1.313583          0.46
     1.313373         17.37
     1.312204          5.64
     1.311778          0.33
     1.311641          0.28
     1.311587         25.85
     1.310475          0.15
     1.310408          0.47
     1.310190          2.79
     1.310008          9.31
     1.309807          1.12
     1.305428          0.02
     1.305118          0.01
     1.304758          0.60
     1.303204          1.15
     1.302822          0.30
     1.299781          5.73
     1.299500          0.02
     1.299408          0.04
     1.298635          0.22
     1.297879          3.84
     1.297663          2.92
     1.296561          0.00
     1.295399          0.73
     1.293429          5.05
     1.292652         12.84
     1.291825          1.41
     1.291202          1.73
     1.291113          2.08
     1.289064          0.46
     1.288664          1.68
     1.288551          1.43
     1.288461          0.00
     1.287217          0.62
     1.285518          5.50
     1.285478          0.49
     1.285446         15.81
##############################################################################
###                            Comments                                    ###
##############################################################################
###   Diffraction pattern calculated by Match!. 
###   I/Ic calculated by Match!. 
##############################################################################


