##############################################################################
###               Crystal structure data exported by Match!                ###
##############################################################################
###                           Data published by:                           ###
###                                                                        ###
###               COD (Crystallography Open Database)
##############################################################################
data_9008214
_citation_journal_full    'Zeitschrift fur Kristallographie'
_citation_journal_volume  '136'
_citation_page_first  '273'
_citation_page_last   '281'
_citation_year  '1972'
_citation_title  'Refinement of the structure of anatase at several temperaturesSample: T = 300 CLocality: Legenbach quarry, Binnatal, Switzerland'
loop_
_publ_author_name
  'Horn M.'
  'Schwerdtfeger C. F.'
  'Meagher E. P.'
_chemical_formula_sum  'O2 Ti'
_chemical_name_mineral  'Anatase'
_symmetry_space_group_name_H-M 'I 41/a m d'
_space_group_IT_number 141
_space_group_crystal_system 'tetragonal'
loop_
_symmetry_equiv_pos_as_xyz
   'x, y, z'
   'x+0.5, y+0.5, z+0.5'
   '-x, -y+0.5, -z+0.25'
   '-x+0.5, -y, -z+0.75'
   '-y, x+0.5, z+0.25'
   '-y+0.5, x, z+0.75'
   '-x, -y, z'
   '-x+0.5, -y+0.5, z+0.5'
   'y, -x+0.5, z+0.25'
   'y+0.5, -x, z+0.75'
   'y, -x, -z'
   'y+0.5, -x+0.5, -z+0.5'
   '-y, x, -z'
   '-y+0.5, x+0.5, -z+0.5'
   'x, -y+0.5, -z+0.25'
   'x+0.5, -y, -z+0.75'
   '-x, y+0.5, -z+0.25'
   '-x+0.5, y, -z+0.75'
   'y, x, -z'
   'y+0.5, x+0.5, -z+0.5'
   '-y, -x, -z'
   '-y+0.5, -x+0.5, -z+0.5'
   'x, y+0.5, -z+0.25'
   'x+0.5, y, -z+0.75'
   '-x, y, z'
   '-x+0.5, y+0.5, z+0.5'
   'x, -y, z'
   'x+0.5, -y+0.5, z+0.5'
   '-y, -x+0.5, z+0.25'
   '-y+0.5, -x, z+0.75'
   'y, x+0.5, z+0.25'
   'y+0.5, x, z+0.75'
_cell_length_a        3.78920
_cell_length_b        3.78920
_cell_length_c        9.53700
_cell_angle_alpha    90.0000
_cell_angle_beta     90.0000
_cell_angle_gamma    90.0000
loop_
_atom_site_label
_atom_site_fract_x
_atom_site_fract_y
_atom_site_fract_z
_atom_site_occupancy
_atom_site_B_iso_or_equiv
ti      0.000   0.000   0.000    1.00000    0.636
o      0.000   0.000   0.208    1.00000    0.950
_cell_measurement_wavelength    1.541874
_cell_measurement_radiation   'x-rays'
_cell_measurement_temperature    573.100000
_exptl_crystal_density_diffrn    3.875000
loop_
_pd_peak_d_spacing
_pd_peak_intensity
     3.521434       1000.00
     2.435419         62.21
     2.384250        199.31
     2.335882         71.45
     1.894600        272.67
     1.703722        173.34
     1.668448        169.58
     1.495392         28.57
     1.483311        129.84
     1.367047         57.68
     1.339685         62.22
     1.282073          5.18
     1.266838         95.20
     1.252133         25.66
     1.192125          4.40
     1.173811          6.25
     1.167941         47.38
     1.162121         18.76
     1.061808          6.30
     1.053104         23.44
     1.044612         26.95
     1.020512         17.76
     1.009000         11.16
##############################################################################
###                            Comments                                    ###
##############################################################################
###   Diffraction pattern calculated by Match!. 
###   I/Ic calculated by Match!. 
###   Space group has been derived from given symmetry operations. 
##############################################################################


