##############################################################################
###               Crystal structure data exported by Match!                ###
##############################################################################
###                           Data published by:                           ###
###                                                                        ###
###               COD (Crystallography Open Database)
##############################################################################
data_9003322
_citation_journal_full    'American Mineralogist'
_citation_journal_volume  '89'
_citation_page_first  '359'
_citation_page_last   '364'
_citation_year  '2004'
_citation_title  'Sodalite: High-temperature structures obtained from synchrotron radiationand Rietveld refinementsSample: T = 164 C'
loop_
_publ_author_name
  'Hassan I.'
  'Antao S. M.'
  'Parise J. B.'
_chemical_formula_sum  'Al3 Cl Na4 O12 Si3'
_chemical_name_mineral  'Sodalite'
_symmetry_space_group_name_H-M 'P -4 3 n'
_space_group_IT_number 218
_space_group_crystal_system 'cubic'
loop_
_symmetry_equiv_pos_as_xyz
   'x, y, z'
   'y+0.5, -x+0.5, -z+0.5'
   '-x, -y, z'
   '-y+0.5, x+0.5, -z+0.5'
   '-x+0.5, z+0.5, -y+0.5'
   'x, -y, -z'
   '-x+0.5, -z+0.5, y+0.5'
   '-z+0.5, -y+0.5, x+0.5'
   '-x, y, -z'
   'z+0.5, -y+0.5, -x+0.5'
   'z, x, y'
   'y, z, x'
   '-y, -z, x'
   'z, -x, -y'
   '-y, z, -x'
   '-z, -x, y'
   '-z, x, -y'
   'y, -z, -x'
   '-y+0.5, -x+0.5, z+0.5'
   'y+0.5, x+0.5, z+0.5'
   'x+0.5, -z+0.5, -y+0.5'
   'x+0.5, z+0.5, y+0.5'
   '-z+0.5, y+0.5, -x+0.5'
   'z+0.5, y+0.5, x+0.5'
_cell_length_a        8.90171
_cell_length_b        8.90171
_cell_length_c        8.90171
_cell_angle_alpha    90.0000
_cell_angle_beta     90.0000
_cell_angle_gamma    90.0000
loop_
_atom_site_label
_atom_site_fract_x
_atom_site_fract_y
_atom_site_fract_z
_atom_site_occupancy
_atom_site_B_iso_or_equiv
na      0.178   0.178   0.178    1.00000    2.060
al      0.250   0.000   0.500    1.00000    0.521
si      0.250   0.500   0.000    1.00000    0.521
o      0.141   0.151   0.441    1.00000    0.450
cl      0.000   0.000   0.000    1.00000    2.866
_cell_measurement_wavelength    1.541874
_cell_measurement_radiation   'x-rays'
_cell_measurement_temperature    437.100000
_exptl_crystal_density_diffrn    2.282000
loop_
_pd_peak_d_spacing
_pd_peak_intensity
     6.294459        336.58
     4.450855         54.96
     3.980966         10.91
     3.634108       1000.00
     3.147230          0.90
     2.814968         90.58
     2.569702        184.13
     2.468890          0.20
     2.379082        191.09
     2.225427         15.77
     2.158982          0.26
     2.098153        318.66
     1.990483         43.68
     1.942512          0.25
     1.897851         34.90
     1.817054         30.49
     1.780342          0.09
     1.745769         38.80
     1.653006          2.15
     1.625222         29.83
     1.573615        101.74
     1.526631         56.92
     1.504664          0.78
     1.483618         96.35
     1.463432          0.31
     1.444048         91.93
     1.407484          5.82
     1.390213          0.44
     1.373564         34.63
     1.341983         39.59
     1.326989          0.42
     1.312485         40.36
     1.284851         29.74
     1.271673          0.03
     1.258892          2.84
     1.234445          6.38
     1.222744          0.47
     1.211369         89.94
     1.189541          8.86
     1.168852         23.28
     1.158904          0.20
     1.139747          0.62
     1.130518         36.36
     1.112714          4.86
     1.104121          0.23
     1.095725         22.36
     1.079491         20.67
     1.071640          0.42
     1.063958          3.54
     1.049077          5.96
     1.041866          0.05
     1.034803          3.34
     1.027881          0.39
     1.021096         21.93
     1.014444          1.05
     1.007920         10.95
##############################################################################
###                            Comments                                    ###
##############################################################################
###   Diffraction pattern calculated by Match!. 
###   I/Ic calculated by Match!. 
###   Space group has been derived from given symmetry operations. 
##############################################################################


