##############################################################################
###               Crystal structure data exported by Match!                ###
##############################################################################
###                           Data published by:                           ###
###                                                                        ###
###               COD (Crystallography Open Database)
##############################################################################
data_9014678
_citation_journal_full    'Physics and Chemistry of Minerals'
_citation_journal_volume  '39'
_citation_page_first  '399'
_citation_page_last   '412'
_citation_year  '2012'
_citation_title  'Crystal-structure properties and the molecular nature ofhydrostatically compressed realgarNote: P = 1.55 GPa'
loop_
_publ_author_name
  'Hejny C.'
  'Sagl R.'
  'Tobbens D. M.'
  'Miletich R.'
  'Wildner M.'
  'Nasdala L.'
  'Ullrich A.'
  'Balic-Zunic T'
_chemical_formula_sum  'As S'
_chemical_name_mineral  'Realgar'
_symmetry_space_group_name_H-M 'P 1 21/n 1'
_space_group_IT_number 14
_space_group_crystal_system 'monoclinic'
loop_
_symmetry_equiv_pos_as_xyz
   'x, y, z'
   '-x+0.5, y+0.5, -z+0.5'
   '-x, -y, -z'
   'x+0.5, -y+0.5, z+0.5'
_cell_length_a        9.06500
_cell_length_b       13.03000
_cell_length_c        6.37500
_cell_angle_alpha    90.0000
_cell_angle_beta    106.7700
_cell_angle_gamma    90.0000
loop_
_atom_site_label
_atom_site_fract_x
_atom_site_fract_y
_atom_site_fract_z
_atom_site_occupancy
_atom_site_B_iso_or_equiv
as      0.114   -0.025   0.759    1.00000    1.389
as      0.429   0.137   0.854    1.00000    1.508
as      0.325   0.127   0.185    1.00000    1.373
as      0.034   0.163   0.706    1.00000    1.515
s      0.343   -0.012   0.693    1.00000    1.737
s      0.212   -0.027   0.123    1.00000    1.500
s      0.240   0.229   0.629    1.00000    1.705
s      0.105   0.215   0.054    1.00000    1.665
_cell_measurement_wavelength    1.541874
_cell_measurement_radiation   'x-rays'
_exptl_crystal_density_diffrn    3.943000
loop_
_pd_peak_d_spacing
_pd_peak_intensity
     7.223597         97.06
     6.515000         52.89
     5.849819        470.38
     5.527451        422.07
     5.336670        271.59
     5.210445       1000.00
     4.454347         86.18
     4.427766          7.81
     4.352678         14.83
     4.339736          4.41
     4.192327          1.58
     4.117376         75.77
     3.951520        250.60
     3.884151         48.35
     3.662073         48.73
     3.611799         77.32
     3.538856         53.92
     3.498283        127.35
     3.487225          2.12
     3.257500          7.29
     3.100621         40.79
     3.089879         18.69
     3.069928        449.92
     3.051938        546.93
     3.049780        337.39
     3.048377         45.89
     2.999306         12.59
     2.971516         95.65
     2.966531        454.79
     2.924909          0.26
     2.892513         85.65
     2.873854        282.41
     2.858183        317.29
     2.853891        209.77
     2.845996          0.01
     2.825238        664.24
     2.824373         29.13
     2.763725        123.70
     2.699823        158.56
     2.668335         15.55
     2.644162        137.04
     2.623902        527.73
     2.605222        121.03
     2.596653        190.46
     2.566123          4.44
     2.561644        102.11
     2.542201          2.88
     2.497107         47.85
     2.495924        229.23
     2.454548         20.66
     2.449671         43.38
     2.444364        158.73
     2.426078         27.25
     2.407866        162.90
     2.396704          7.24
     2.380474        200.99
     2.363685        101.71
     2.325728         66.48
     2.324725        133.99
     2.275725        102.91
     2.262061          3.99
     2.258991         31.74
     2.245883          1.99
     2.234136         12.17
     2.227451          1.45
     2.227174         14.72
     2.221967         45.87
     2.213883         24.63
     2.206470          0.13
     2.193322          0.87
     2.182603          0.12
     2.176339          0.11
     2.171667        131.63
     2.169868         17.26
     2.163163         68.49
     2.159238        136.68
     2.140392         20.71
     2.135795         47.09
     2.121614        144.69
     2.106723        145.80
     2.096163         35.66
     2.094037         82.17
     2.076154          6.36
     2.073403        128.71
     2.061981        156.49
     2.058688         68.60
     2.055596          2.75
     2.047641         42.54
     2.046028         13.96
     2.035903         46.32
     2.017341          0.15
     2.015786          1.57
     2.010265         29.40
     2.005341          8.76
     2.004128          0.90
     1.988632         63.53
     1.981811          0.05
     1.977522         40.23
     1.975760         45.91
     1.972429         10.81
     1.957847          5.91
     1.949940         45.45
     1.949777          0.84
     1.945739          0.05
     1.942120          7.42
     1.942076         43.58
     1.941110          0.37
     1.936306         13.44
     1.928465         13.61
     1.923820         17.56
     1.913106         40.13
     1.906336         21.09
     1.882055          8.64
     1.871132          0.02
     1.868063          4.97
     1.864961         16.26
     1.861163          0.80
     1.858013         51.89
     1.857275          3.83
     1.846147         15.46
     1.842484          6.15
     1.831628          2.55
     1.831036          6.23
     1.820043         15.32
     1.812983         41.31
     1.806693         50.88
     1.805899         10.37
     1.799758          5.33
     1.795684         41.25
     1.793483         81.62
     1.792948        109.77
     1.785257        152.76
     1.780477          8.59
     1.779639         29.57
     1.778890          5.94
     1.777796         11.04
     1.773792          2.24
     1.769428         89.79
     1.758054          0.29
     1.752310        122.73
     1.750792          0.22
     1.749141         27.31
     1.746616        121.81
     1.743612          8.30
     1.743064         15.85
     1.736815         31.18
     1.725671         41.31
     1.725654        108.41
     1.724685          1.78
     1.720692          6.23
     1.715959          5.78
     1.713665         33.48
     1.710703          0.16
     1.707696         73.79
     1.702033         26.15
     1.698186         11.94
     1.698078          1.35
     1.687233         17.88
     1.681073          5.29
     1.679644         32.58
     1.677374         22.03
     1.673092         65.64
     1.673076         36.16
     1.667505          6.21
     1.653164         23.24
     1.645304        144.84
     1.636237         91.57
     1.630270         47.50
     1.629618          8.96
     1.628750         47.13
     1.628572          1.35
     1.622511         40.13
     1.618483        157.52
     1.615203         45.86
     1.614637        119.44
     1.611922         12.51
     1.608674          4.02
     1.606525          3.87
     1.603726         45.09
     1.600808         24.02
     1.600605          0.25
     1.599182         29.31
     1.590301         25.79
     1.589167          3.66
     1.584159         72.91
     1.578587          4.39
     1.576731         21.08
     1.573688          0.90
     1.571269          7.42
     1.570386         27.11
     1.569067          2.92
     1.567694         12.69
     1.566139         45.67
     1.565414         24.02
     1.561668          0.03
     1.561262          0.00
     1.556469          0.67
     1.556009          1.97
     1.555752         11.72
     1.550571          8.60
     1.550310         15.78
     1.547677         25.83
     1.544940          2.19
     1.544780         58.54
     1.538078          0.64
     1.535563          1.93
     1.534964          1.53
     1.534769          3.34
     1.531952          8.15
     1.528610          4.63
     1.525969          0.14
     1.524900         27.12
     1.524890          7.52
     1.524188         61.76
     1.523166          3.54
     1.518648          4.71
     1.517595         35.02
     1.516608          0.32
     1.516005          0.40
     1.515611          8.11
     1.513206         12.77
     1.508528          0.25
     1.505259         17.90
     1.504540         10.46
     1.499653         18.62
     1.498638          0.67
     1.493346          1.30
     1.490573         32.91
     1.488257          6.55
     1.487146          0.62
     1.485758          8.59
     1.484782          2.16
     1.483715         10.73
     1.483265          1.66
     1.475922          5.52
     1.474580          4.48
     1.473747         29.34
     1.469758         53.39
     1.469562          5.80
     1.466544          0.00
     1.464629          8.47
     1.462455         62.80
     1.462398         30.01
     1.457885          1.24
     1.456766          8.09
     1.453329         29.71
     1.450893         24.39
     1.449721          3.07
     1.447081          9.14
     1.446579          0.71
     1.446257          4.89
     1.445366         50.79
     1.444719          1.06
     1.439698          6.43
     1.439447          2.23
     1.437745          0.35
     1.437001          5.94
     1.436927         15.66
     1.429091         22.08
     1.428047         11.36
     1.427714          3.41
     1.426945          8.15
     1.425404         44.42
     1.425126         41.10
     1.424745         22.28
     1.423655          1.53
     1.422998          1.00
     1.421571          2.57
     1.419296          2.87
     1.414846          0.01
     1.412806          0.26
     1.412619         77.61
     1.412186          2.20
     1.408694          3.14
     1.408279          0.11
     1.408205         21.91
     1.405376          3.31
     1.404052          4.87
     1.403863         53.83
     1.403671         19.44
     1.400486         14.44
     1.399227         11.91
     1.397442          0.02
     1.396934         33.21
     1.391744          0.04
     1.389541         12.92
     1.387582         11.05
     1.385995          1.72
     1.385127          0.74
     1.381863          7.19
     1.376084          5.82
     1.374556          0.64
     1.373385         19.80
     1.373369         51.43
     1.372459          0.07
     1.368962          3.66
     1.366867          3.76
     1.366811          0.32
     1.362807          6.65
     1.361711          8.38
     1.357895         12.97
     1.357497         16.38
     1.355944          1.90
     1.352835          4.95
     1.352170          9.08
     1.349911          2.53
     1.349201          6.13
     1.346432          3.33
     1.344369          0.25
     1.343482         19.71
     1.343355          6.21
     1.341173          9.18
     1.339557          0.02
     1.335818          0.01
     1.329844          0.17
     1.328012          3.80
     1.324901          0.19
     1.322901          0.13
     1.322557         21.32
     1.322153          2.15
     1.322081          4.70
     1.321502          6.96
     1.318105          3.81
     1.317688         35.04
     1.317660          6.07
     1.317476          1.25
     1.317173          5.23
     1.316822         11.20
     1.314416          0.69
     1.312466          1.56
     1.312168          0.02
     1.311951          5.07
     1.308059          3.04
     1.305644          0.01
     1.303000          5.13
     1.302611          5.91
     1.301281          0.13
     1.301098          0.00
     1.298762          4.03
     1.298327          1.69
     1.297901          1.51
     1.297526         24.10
     1.294812          2.42
     1.294717          0.30
     1.291945          1.05
     1.289880          5.87
     1.289755          4.87
     1.289085         18.21
     1.288561          0.81
     1.284309          3.21
     1.284256          0.31
     1.283606          1.96
     1.283061          0.01
     1.282240          7.23
     1.280822         33.94
     1.279123          0.20
     1.279110          3.64
     1.278430          4.82
     1.275354         17.60
     1.274289         22.76
     1.272450          2.61
     1.271832          5.63
     1.271520          7.38
     1.271125          1.67
     1.271100          2.09
     1.270507          0.68
     1.269524          0.50
     1.268904         20.86
     1.267882          0.73
     1.267253          1.01
     1.266858         18.91
     1.265319          3.20
     1.264784          0.04
     1.264710          2.71
     1.262798          0.07
     1.261012          5.43
     1.260060          4.72
     1.259637          9.34
     1.256909          0.02
     1.256358          0.07
     1.254209          4.34
     1.252281          1.72
     1.252256          0.14
     1.251407          1.96
     1.251229         18.39
     1.250041          3.06
     1.249998          2.75
     1.248553          2.98
     1.247962          4.69
     1.247679          0.22
     1.244272          0.81
     1.243078          4.81
     1.241664          0.47
     1.239725          2.58
     1.239013         11.54
     1.238638         25.43
     1.237133          1.60
     1.236504          3.35
     1.234594          9.61
     1.234348          0.14
     1.232483          0.57
     1.231143         19.62
     1.227880          6.36
     1.227274          0.99
     1.226915          0.24
     1.226766          4.50
     1.224836          3.43
     1.223346          5.67
     1.222478          3.22
     1.222464          1.15
     1.222182          0.77
     1.221124          0.06
     1.220691          2.73
     1.220382         14.25
     1.219199          3.47
     1.218061         19.46
     1.215452          0.59
     1.213660          1.01
     1.213039          8.69
     1.212587          1.09
     1.211686          2.49
     1.211615          0.97
     1.210161          2.20
     1.209117          1.16
     1.207791          0.45
     1.206636          3.41
     1.205819          0.40
     1.205742          0.22
     1.204635          2.63
     1.204317          0.37
     1.203933          0.60
     1.203243         11.34
     1.203234          0.39
     1.199892          4.51
     1.199282          0.10
     1.199181          3.97
     1.199091          0.09
     1.198352          3.63
     1.196659          0.02
     1.196388          1.38
     1.196156         13.41
     1.195873          1.42
     1.195612          0.35
     1.195057          7.21
     1.193722          4.65
     1.192992          4.56
     1.192520         31.02
     1.192292          6.09
     1.190237          0.01
     1.189809          1.05
     1.189453          0.10
     1.189084          3.12
     1.188068          1.61
     1.187773          9.80
     1.187265          0.23
     1.187034          0.09
     1.181843          9.23
     1.181571          0.05
     1.181031          8.88
     1.180711          1.51
     1.180108          0.16
     1.179691         15.20
     1.179619          2.19
     1.177423         23.60
     1.177011          0.01
     1.175236          0.00
     1.175202          4.27
     1.173666          4.52
     1.172042          0.26
     1.169964          0.04
     1.169279          1.49
     1.168883          3.40
     1.168306          1.33
     1.166094          4.61
     1.165276          7.19
     1.164992          0.47
     1.164862          8.30
     1.163463          0.80
     1.162864          0.03
     1.162851          6.08
     1.162408         11.16
     1.162363          2.76
     1.160982          4.39
     1.160363          2.32
     1.160020          5.76
     1.158852          0.60
     1.158816          0.03
     1.156497         12.25
     1.156022          7.52
     1.154338          4.11
     1.152735          0.98
     1.151992          0.37
     1.151543          0.52
     1.150493         15.51
     1.149984          0.00
     1.148965          0.24
     1.147516          1.64
     1.147237          1.53
     1.147165         10.12
##############################################################################
###                            Comments                                    ###
##############################################################################
###   Baia Sprie mine, Romania
###   Diffraction pattern calculated by Match!. 
###   I/Ic calculated by Match!. 
##############################################################################


