##############################################################################
###               Crystal structure data exported by Match!                ###
##############################################################################
###                           Data published by:                           ###
###                                                                        ###
###               COD (Crystallography Open Database)
##############################################################################
data_9015711
_citation_journal_full    'Physics and Chemistry of Minerals'
_citation_journal_volume  '39'
_citation_page_first  '399'
_citation_page_last   '412'
_citation_year  '2012'
_citation_title  'Crystal-structure properties and the molecular nature ofhydrostatically compressed realgarNote: P = 0 GPa'
loop_
_publ_author_name
  'Hejny C.'
  'Sagl R.'
  'Tobbens D. M.'
  'Miletich R.'
  'Wildner M.'
  'Nasdala L.'
  'Ullrich A.'
  'Balic-Zunic T'
_chemical_formula_sum  'As S'
_chemical_name_mineral  'Realgar'
_symmetry_space_group_name_H-M 'P 1 21/n 1'
_space_group_IT_number 14
_space_group_crystal_system 'monoclinic'
loop_
_symmetry_equiv_pos_as_xyz
   'x, y, z'
   '-x+0.5, y+0.5, -z+0.5'
   '-x, -y, -z'
   'x+0.5, -y+0.5, z+0.5'
_cell_length_a        9.32720
_cell_length_b       13.56600
_cell_length_c        6.59030
_cell_angle_alpha    90.0000
_cell_angle_beta    106.4330
_cell_angle_gamma    90.0000
loop_
_atom_site_label
_atom_site_fract_x
_atom_site_fract_y
_atom_site_fract_z
_atom_site_occupancy
_atom_site_B_iso_or_equiv
as      0.121   -0.021   0.764    1.00000    2.111
as      0.424   0.139   0.856    1.00000    2.167
as      0.321   0.127   0.178    1.00000    2.134
as      0.039   0.161   0.714    1.00000    2.355
s      0.345   -0.006   0.701    1.00000    2.281
s      0.214   -0.023   0.116    1.00000    2.234
s      0.239   0.226   0.640    1.00000    2.463
s      0.107   0.210   0.052    1.00000    2.589
_cell_measurement_wavelength    1.541874
_cell_measurement_radiation   'x-rays'
_exptl_crystal_density_diffrn    3.554000
loop_
_pd_peak_d_spacing
_pd_peak_intensity
     7.468442         79.92
     6.783000         56.86
     6.028378        417.26
     5.729639        445.33
     5.508945        259.65
     5.405053       1000.00
     4.624369         99.76
     4.587004         22.09
     4.505981         11.65
     4.473098          0.54
     4.345327          0.01
     4.248125         45.11
     4.067955        214.07
     4.035737         29.40
     3.799728         38.56
     3.734221         72.22
     3.677794         50.84
     3.617394          5.22
     3.610074         91.44
     3.391500          4.95
     3.220273         24.88
     3.193933         11.07
     3.180106        306.62
     3.171266        246.09
     3.160547        417.80
     3.155189         30.14
     3.102375         16.13
     3.078115         65.15
     3.050488        325.09
     3.014189          1.14
     2.988515        199.42
     2.976173         66.72
     2.957483        228.87
     2.955836          0.54
     2.942434        150.41
     2.926643        501.57
     2.912528         15.63
     2.864819         86.47
     2.782091        109.45
     2.754473         14.36
     2.729893        119.19
     2.727049        408.60
     2.702527         95.21
     2.691440        138.89
     2.658434          2.53
     2.654332         58.59
     2.635968          2.82
     2.596419        164.67
     2.590526         21.11
     2.545351          9.18
     2.528876         21.19
     2.516059        122.39
     2.508079         17.14
     2.493230          2.17
     2.489481        133.01
     2.474159        154.44
     2.443430         94.20
     2.404735         43.84
     2.395492         88.07
     2.360085         66.07
     2.347147          0.31
     2.344323         16.52
     2.335264          0.06
     2.319810          6.92
     2.312184          4.81
     2.298825         25.78
     2.293502         13.09
     2.292020          0.26
     2.289113          0.10
     2.268029          0.57
     2.261412          1.63
     2.261000        132.07
     2.252990          0.20
     2.239480         49.82
     2.236549         18.95
     2.228096        108.80
     2.206760         20.73
     2.199765         19.25
     2.194092        118.57
     2.192075         93.87
     2.172664         30.14
     2.165947         66.37
     2.149679          1.95
     2.134173          2.65
     2.132092         96.11
     2.128971        112.03
     2.128908          6.22
     2.124062         47.56
     2.116999         40.60
     2.106238         39.87
     2.092267          0.85
     2.087594          0.43
     2.082068         28.43
     2.081262          1.92
     2.068022          1.25
     2.058676          0.19
     2.054428         46.81
     2.045456          4.32
     2.043500         17.58
     2.033977         41.02
     2.028015          5.50
     2.027325          2.54
     2.017869         25.48
     2.016563          0.09
     2.012185          0.94
     2.009459         19.65
     2.006858         20.29
     2.004747          2.67
     1.997568         10.03
     1.987771         12.26
     1.982497         43.73
     1.974000         21.10
     1.945888          6.69
     1.932547          3.82
     1.930023         30.73
     1.928484          0.60
     1.926690          5.04
     1.923092          2.19
     1.917905          2.30
     1.913231         14.25
     1.909880          4.37
     1.899864          9.23
     1.896520          5.06
     1.894067          7.02
     1.867620         19.61
     1.867111          7.35
     1.865440         18.35
     1.862719         47.23
     1.862184          3.64
     1.858584         83.02
     1.854941        119.44
     1.852872         10.12
     1.848050         26.87
     1.845004          3.14
     1.843254         13.87
     1.842195          5.67
     1.838897         71.10
     1.836315          3.04
     1.819284          0.01
     1.816450        103.51
     1.815671          0.99
     1.808697          4.19
     1.805037         16.76
     1.801684         17.71
     1.798659         99.10
     1.794512         13.41
     1.789754         28.47
     1.785205          3.61
     1.784959         62.05
     1.778272          0.53
     1.777066         22.76
     1.773877          3.67
     1.773715          2.62
     1.765662         45.61
     1.764332         12.08
     1.763651         17.14
     1.751554         15.48
     1.749188          1.15
     1.745469         17.89
     1.730061         17.37
     1.729910          5.77
     1.728792         47.05
     1.725789          4.14
     1.724469         22.23
     1.713250         15.55
     1.706056        114.36
     1.695750         42.05
     1.694808         59.58
     1.687810          5.01
     1.685736          0.76
     1.680726         41.63
     1.679082        118.18
     1.676415         30.30
     1.673677         88.10
     1.669345          5.61
     1.667753          3.41
     1.666084         12.75
     1.664151         28.84
     1.663737          5.30
     1.663603         28.70
     1.659519         27.35
     1.652134          2.44
     1.643156         22.63
     1.637838          2.45
     1.635797         21.66
     1.634505         57.53
     1.632396          4.79
     1.631234          4.03
     1.630128         13.73
     1.625756          8.89
     1.624989         15.24
     1.622076          8.50
     1.621075         30.43
     1.614806          0.04
     1.613409          0.32
     1.610604          0.84
     1.610137         12.90
     1.606607          5.40
     1.606366          0.22
     1.597114         13.93
     1.596967          1.96
     1.595458         37.89
     1.595221          8.79
     1.591826          0.02
     1.590542          2.31
     1.590053          4.89
     1.585633          6.83
     1.584585          0.83
     1.583385          4.65
     1.582514          6.41
     1.582399          1.56
     1.580274          0.03
     1.579551         15.64
     1.577594         46.69
     1.575726          0.73
     1.574580         27.94
     1.574073          0.11
     1.569660          6.57
     1.564727          0.02
     1.563352         16.22
     1.563130          4.57
     1.560202         14.64
     1.553119          7.58
     1.551188         18.64
     1.545276         24.35
     1.544360          0.07
     1.542599          0.03
     1.541456          1.44
     1.539709          1.23
     1.539057          5.99
     1.539017          8.05
     1.537170          6.67
     1.529001          4.98
     1.526819          3.93
     1.525244          0.28
     1.519381          0.03
     1.518386         17.90
     1.515694         22.50
     1.513897          5.54
     1.513695          2.15
     1.513523         43.26
     1.507094         39.21
     1.506955          2.93
     1.505946          0.41
     1.504599          5.68
     1.502828         38.33
     1.501994         19.62
     1.497879         23.71
     1.494258         17.90
     1.493688          0.67
     1.493591          6.32
     1.491804          4.73
     1.491575          2.73
     1.491033          0.78
     1.488774          2.62
     1.488087          0.93
     1.486383          5.11
     1.482139          5.30
     1.482107          0.43
     1.480287         12.74
     1.478742         11.01
     1.477918          0.27
     1.477011         28.41
     1.474657          0.51
     1.474085          6.04
     1.473498          2.95
     1.471217          9.14
     1.469048          1.08
     1.468515         37.94
     1.466222          1.86
     1.464636          0.63
     1.463321         63.08
     1.462314          1.83
     1.461443          0.01
     1.456948          7.39
     1.456264          4.36
     1.452517          6.76
     1.451934         41.61
     1.451756         14.46
     1.451429         10.03
     1.448442          0.30
     1.445247         13.62
     1.443725         17.63
     1.442817          6.95
     1.441207         13.75
     1.438915          0.28
     1.434093          0.61
     1.432410          7.63
     1.431998          2.86
     1.429778          1.20
     1.428413         38.61
     1.426392         17.87
     1.421157          0.43
     1.416042          0.03
     1.413807          5.95
     1.413656          0.20
     1.413207          0.03
     1.411756          3.13
     1.411595         12.78
     1.405501         15.52
     1.403063          1.11
     1.402982         11.99
     1.401992          4.29
     1.394952          2.21
     1.393894          0.29
     1.393125         11.00
     1.392240          2.59
     1.391178          4.69
     1.391046          2.07
     1.389478          9.88
     1.389244          4.94
     1.382422          0.62
     1.382268          0.31
     1.377236          0.84
     1.375331          0.05
     1.373013          0.10
     1.372481          1.58
     1.372036          0.00
     1.370148          1.81
     1.370089         23.35
     1.368441          2.99
     1.368117         24.46
     1.367893          1.64
     1.366985          0.40
     1.366034          7.25
     1.365538          3.49
     1.364947          0.47
     1.363525          4.11
     1.362287          0.41
     1.360963          0.60
     1.360525          1.79
     1.360452          2.60
     1.356600          1.16
     1.355985          3.42
     1.351359          0.25
     1.351263          4.83
     1.348157         12.54
     1.347609          0.28
     1.347597          0.04
     1.345720          3.09
     1.345246          0.20
     1.343985          0.93
     1.341728          2.10
     1.341267          0.68
     1.340382          2.75
     1.334603          1.96
     1.334396          0.57
     1.332799          1.03
     1.332047          0.09
     1.329560         11.61
     1.329217          0.57
     1.328082          3.48
     1.327765          5.13
     1.327166         26.96
     1.326397         12.11
     1.326249          0.00
     1.323502          3.97
     1.322966          4.85
     1.321450          0.07
     1.321355          0.00
     1.321056          3.36
     1.317984          0.34
     1.317487         11.07
     1.315666          1.75
     1.314632          0.23
     1.314566          0.18
     1.313788          1.16
     1.311882          9.90
     1.310919          1.10
     1.309645          1.02
     1.309515          0.03
     1.308820         17.52
     1.306716          0.00
     1.304036          0.01
     1.303931          2.25
     1.303612          4.45
     1.303219          0.15
     1.303035          0.88
     1.300899          3.30
     1.298963          1.32
     1.298209          5.01
     1.298052          0.09
     1.297949          2.56
     1.297488          2.53
     1.297361          0.01
     1.295962          1.75
     1.295263          3.27
     1.293859          8.25
     1.292755          3.24
     1.291569          0.78
     1.291381          0.03
     1.289376          0.48
     1.282869          2.40
     1.280585          1.87
     1.280486          1.30
     1.280241          0.04
     1.279932          5.30
     1.277524          9.51
     1.274621          0.72
     1.274578         12.41
     1.273982          0.89
     1.272676          0.01
     1.272394          0.56
     1.269644          0.44
     1.268797          2.77
     1.268158          0.04
     1.266576          0.62
     1.265402          4.17
     1.264859          2.20
     1.264438          1.67
     1.262514          4.29
     1.259643          0.81
     1.259079          0.19
     1.258953         11.38
     1.258765          0.44
     1.258030          0.04
     1.257726          0.70
     1.257082          0.16
     1.255929          8.76
     1.254788          0.03
     1.254039          6.95
     1.253959          0.04
     1.253307          0.53
     1.252977          0.18
     1.252884          1.40
     1.251580          0.80
     1.251578          0.74
     1.250817          1.81
     1.249957          0.01
     1.246615          1.27
     1.244740          0.01
     1.243877          0.27
     1.242998          2.50
     1.242817          0.91
     1.242398          1.23
     1.241906          2.31
     1.241739          8.28
     1.241717          0.19
     1.241197          1.64
     1.239552          1.95
     1.237631          2.41
     1.237080          0.01
     1.236860          0.86
     1.236750          0.73
     1.236390          0.59
     1.235900         13.68
     1.235298          0.27
     1.234829          1.43
     1.231825          8.83
     1.231774          0.00
     1.231649          0.22
     1.230810          0.81
     1.230800          7.40
     1.230746          1.44
     1.229853          1.88
     1.228543          0.00
     1.225931          1.01
     1.225081          6.82
     1.224724          0.02
     1.221719          3.73
     1.221715          4.13
     1.221050          2.17
     1.217703          9.41
     1.217533          0.05
     1.217163         16.19
     1.217077          3.18
     1.216790          0.03
     1.216274          0.53
     1.216010          0.07
     1.211739          0.46
     1.211730          1.25
     1.211028          0.43
     1.210450          2.79
     1.210000          6.84
     1.208248          3.36
     1.205880          0.41
     1.205798          8.21
     1.205676          0.03
     1.205428          0.01
     1.203358          1.54
     1.202367          0.64
     1.201143          0.75
     1.200942          6.29
     1.200697          0.01
     1.200388          7.08
     1.198743          1.88
     1.198567          3.95
     1.197746          1.55
     1.195933          0.08
     1.192616          2.97
     1.190978          4.77
     1.190905          5.49
     1.189699          0.15
     1.189045          0.12
     1.188912          5.91
     1.188552          2.37
     1.188358          1.51
     1.188339          0.00
     1.188193          9.12
##############################################################################
###                            Comments                                    ###
##############################################################################
###   Baia Sprie mine, Romania
###   Diffraction pattern calculated by Match!. 
###   I/Ic calculated by Match!. 
##############################################################################


