##############################################################################
###               Crystal structure data exported by Match!                ###
##############################################################################
###                           Data published by:                           ###
###                                                                        ###
###               COD (Crystallography Open Database)
##############################################################################
data_9007168
_citation_journal_full    'Physics and Chemistry of Minerals'
_citation_journal_volume  '30'
_citation_page_first  '167'
_citation_page_last   '176'
_citation_year  '2003'
_citation_title  'Compression mechanisms of coesiteSample: X1P12, P = 6.16 GPa'
loop_
_publ_author_name
  'Angel R. J.'
  'Shaw C. S. J.'
  'Gibbs G. V.'
_chemical_formula_sum  'O2 Si'
_chemical_name_mineral  'Coesite'
_symmetry_space_group_name_H-M 'C 1 2/c 1'
_space_group_IT_number 15
_space_group_crystal_system 'monoclinic'
loop_
_symmetry_equiv_pos_as_xyz
   'x, y, z'
   'x+0.5, y+0.5, z'
   '-x, y, -z+0.5'
   '-x+0.5, y+0.5, -z+0.5'
   '-x, -y, -z'
   '-x+0.5, -y+0.5, -z'
   'x, -y, z+0.5'
   'x+0.5, -y+0.5, z+0.5'
_cell_length_a        6.95200
_cell_length_b       12.19860
_cell_length_c        7.09420
_cell_angle_alpha    90.0000
_cell_angle_beta    120.8200
_cell_angle_gamma    90.0000
loop_
_atom_site_label
_atom_site_fract_x
_atom_site_fract_y
_atom_site_fract_z
_atom_site_occupancy
_atom_site_B_iso_or_equiv
si      0.136   0.111   0.069    1.00000    0.529
si      0.509   0.157   0.545    1.00000    0.520
o      0.000   0.000   0.000    1.00000    0.880
o      0.500   0.107   0.750    1.00000    0.780
o      0.250   0.131   0.924    1.00000    0.750
o      0.321   0.101   0.325    1.00000    0.859
o      0.029   0.212   0.471    1.00000    0.730
_cell_measurement_wavelength    1.541874
_cell_measurement_radiation   'x-rays'
_cell_measurement_pressure       6160000.000000
_exptl_crystal_density_diffrn    3.090000
loop_
_pd_peak_d_spacing
_pd_peak_intensity
     6.099300         69.17
     5.459857          5.86
     5.362450          3.87
     4.310402         22.02
     3.406018         74.04
     3.384350        133.88
     3.360764        297.93
     3.335390        681.48
     3.052780        934.20
     3.049650       1000.00
     3.046183        757.39
     3.019225        790.40
     2.985123        184.92
     2.729929          8.80
     2.727069         60.77
     2.725208         94.15
     2.681225         91.18
     2.672984        107.88
     2.638436        258.19
     2.292092        127.40
     2.277806         81.22
     2.265543         16.33
     2.258427         31.78
     2.247583          1.86
     2.242319         93.01
     2.226928         68.29
     2.169054         27.47
     2.157534         48.79
     2.155201         22.32
     2.133249         40.35
     2.120533         10.29
     2.033100          1.16
     2.014153         21.38
     2.010142          4.23
     2.007440          9.03
     1.995324        114.97
     1.993166         37.14
     1.989492          2.57
     1.978719          0.55
     1.964117         34.27
     1.928548          0.00
     1.926794          0.12
     1.846820          6.46
     1.819952        102.29
     1.816593         14.02
     1.787483        112.93
     1.773545        147.86
     1.754802        121.26
     1.737411          2.71
     1.733762          0.00
     1.703009          0.01
     1.692175          8.05
     1.691049         64.82
     1.690309         36.36
     1.684952          9.11
     1.682731          9.67
     1.680680         19.53
     1.680382         72.55
     1.675736         13.75
     1.672850         42.95
     1.670941         22.14
     1.668429          1.38
     1.667695         26.85
     1.666272          3.78
     1.662590        123.25
     1.659927          1.06
     1.642492          8.10
     1.621823        160.94
     1.601238          6.09
     1.569431          1.60
     1.567636         10.52
     1.564090         41.78
     1.562816          1.16
     1.557079         29.08
     1.551313         40.43
     1.542112         36.76
     1.534948         19.60
     1.533135         46.94
     1.529269          0.24
     1.526390         33.47
     1.524825         44.24
     1.523091         10.94
     1.511974         14.54
     1.509613         15.72
     1.507217         62.17
     1.492562         24.18
     1.480726          0.51
     1.479198         28.29
     1.477714          2.09
     1.473099          3.26
     1.457622          3.00
     1.449784         13.26
     1.436801          0.02
     1.400018         12.57
     1.396301         20.21
     1.395483          1.52
     1.394220          1.40
     1.393053          9.97
     1.386053          5.84
     1.384815         13.41
     1.382699         26.92
     1.381167          1.44
     1.376197         15.10
     1.372398          1.15
     1.371074          1.93
     1.368253         15.70
     1.365876         34.98
     1.364964          6.34
     1.364124          3.01
     1.363534          7.57
     1.362604          2.44
     1.357924          4.49
     1.347654          1.41
     1.340613          0.12
     1.336492          1.25
     1.331616         15.00
     1.327488        132.90
     1.323698         51.70
     1.323188          2.67
     1.321766         66.69
     1.320823         82.40
     1.319218         49.06
     1.317912         40.37
     1.314729         11.20
     1.311069          2.18
     1.311047         31.81
     1.306458         68.26
     1.304195         55.56
     1.302135         42.85
     1.297294          3.25
     1.296158         69.84
     1.285578         12.03
     1.278719          2.88
     1.274745         66.47
     1.274367         23.55
     1.268747         43.03
     1.266114         89.57
     1.264307          6.70
     1.262386          7.19
     1.260380         55.85
     1.258633          3.85
     1.257594          7.54
     1.242309          0.27
     1.224877          0.43
     1.220661          2.14
     1.220352          3.82
     1.219860          5.26
     1.219360         56.83
     1.218972          5.70
     1.217345          0.20
     1.216506         10.23
     1.215039         15.02
     1.208831          4.81
     1.204479          0.97
     1.203151         42.29
     1.201039          1.38
     1.199142          6.33
     1.198627          0.15
     1.197541         40.68
     1.196119          0.56
     1.194863          7.42
     1.188370         16.19
     1.176848         33.01
     1.171416         30.97
     1.170130          2.17
     1.169514          3.46
     1.165972         23.07
     1.165236         40.99
     1.164820         25.19
     1.163059          0.05
     1.162621         32.56
     1.160382          0.10
     1.159293          5.34
     1.157809          0.87
     1.156236         15.21
     1.150995          1.44
     1.150688          0.03
     1.150512          0.37
     1.146046          3.72
     1.145674         26.21
     1.144997         13.06
     1.143367          0.15
     1.142835          0.15
     1.140595          2.13
     1.139935          1.24
     1.138903          0.38
     1.137937         13.89
     1.135339          4.06
     1.132772          2.12
     1.132495          0.57
     1.132434          1.09
     1.131501          4.38
     1.130809          9.61
     1.129822          1.19
     1.129213          3.14
     1.128117          0.84
     1.123792          0.66
     1.122794          0.72
     1.121160          1.09
     1.120255          4.22
     1.117388         39.09
     1.113464          1.61
     1.111862          2.42
     1.111797          7.43
     1.097352         12.11
     1.095823         17.83
     1.095755          0.11
     1.093923          0.01
     1.091971          6.78
     1.091112          2.37
     1.090314          0.13
     1.085175         11.79
     1.084527          0.07
     1.084286          2.91
     1.083638          2.25
     1.082805          1.54
     1.080388         17.32
     1.079782          5.32
     1.079217         14.52
     1.078767          0.46
     1.077601          0.09
     1.075039         14.26
     1.073642          5.78
     1.072490         12.84
     1.070597          2.61
     1.068493          0.32
     1.068320          2.83
     1.066624          0.60
     1.063998         22.10
     1.062014          3.20
     1.061656          1.42
     1.060346          0.45
     1.060267          0.02
     1.060092         17.24
     1.059978         10.92
     1.059538         20.85
     1.058441          4.03
     1.057160         21.37
     1.056261          5.56
     1.055084          5.76
     1.054455          0.49
     1.053449          0.37
     1.052374          0.00
     1.049272          0.55
     1.045706          6.75
     1.045146          2.51
     1.044547          3.11
     1.044415          0.88
     1.037138          1.55
     1.034650         19.22
     1.028193          0.00
     1.023922          6.38
     1.017593          0.10
     1.016550          0.13
     1.015394          3.83
     1.012518          0.02
     1.007790          0.04
     1.007077          0.11
     1.006408          3.03
##############################################################################
###                            Comments                                    ###
##############################################################################
###   Diffraction pattern calculated by Match!. 
###   I/Ic calculated by Match!. 
###   Space group has been derived from given symmetry operations. 
##############################################################################


