##############################################################################
###               Crystal structure data exported by Match!                ###
##############################################################################
###                           Data published by:                           ###
###                                                                        ###
###               COD (Crystallography Open Database)
##############################################################################
data_9013575
_citation_journal_full    'American Mineralogist'
_citation_journal_volume  '94'
_citation_page_first  '451'
_citation_page_last   '460'
_citation_year  '2009'
_citation_title  'Molecular conformation and anion configuration variations for As4S4 andAs4Se4 in an anion-substituted solid solution Locality: synthetic Note:S1Se1-7'
loop_
_publ_author_name
  'Kyono A.'
_chemical_formula_sum  'As S0.602 Se0.397'
_chemical_name_mineral  'Realgar'
_symmetry_space_group_name_H-M 'P 1 21/n 1'
_space_group_IT_number 14
_space_group_crystal_system 'monoclinic'
loop_
_symmetry_equiv_pos_as_xyz
   'x, y, z'
   '-x+0.5, y+0.5, -z+0.5'
   '-x, -y, -z'
   'x+0.5, -y+0.5, z+0.5'
_cell_length_a        9.46010
_cell_length_b       13.63230
_cell_length_c        6.64920
_cell_angle_alpha    90.0000
_cell_angle_beta    106.4910
_cell_angle_gamma    90.0000
loop_
_atom_site_label
_atom_site_fract_x
_atom_site_fract_y
_atom_site_fract_z
_atom_site_occupancy
_atom_site_B_iso_or_equiv
as      0.119   -0.020   0.761    1.00000    1.713
as      0.424   0.140   0.859    1.00000    1.689
as      0.322   0.129   0.177    1.00000    1.721
as      0.040   0.161   0.710    1.00000    1.871
s      0.344   -0.009   0.698    0.57290    1.989
se      0.344   -0.009   0.698    0.42700    1.989
s      0.214   -0.025   0.119    0.52200    2.013
se      0.214   -0.025   0.119    0.47800    2.013
s      0.240   0.228   0.640    0.71400    2.123
se      0.240   0.228   0.640    0.28590    2.123
s      0.108   0.214   0.054    0.60100    2.202
se      0.108   0.214   0.054    0.39900    2.202
_cell_measurement_wavelength    1.541874
_cell_measurement_radiation   'x-rays'
_exptl_crystal_density_diffrn    4.059000
loop_
_pd_peak_d_spacing
_pd_peak_intensity
     7.551896         70.07
     6.816150         87.74
     6.092879        352.81
     5.775269        566.07
     5.562571        254.69
     5.449188       1000.00
     4.656222        110.91
     4.633873         65.53
     4.542580         11.76
     4.535476         34.63
     4.387334          0.42
     4.303547         11.00
     4.118275        155.95
     4.062821         12.85
     3.832163         25.10
     3.775948        120.92
     3.700418         56.86
     3.648941         74.58
     3.642602          6.81
     3.408075         18.61
     3.244438          7.36
     3.222393         94.55
     3.210111        393.47
     3.190672          1.06
     3.190332        437.35
     3.187840        434.23
     3.130976          9.02
     3.104099        129.93
     3.092990        438.61
     3.046440         11.13
     3.016327        127.23
     3.005614        179.84
     2.982131        242.42
     2.974385          0.12
     2.973106        213.69
     2.956936        487.98
     2.951912         23.23
     2.887635        158.84
     2.816572        236.79
     2.781285         33.08
     2.763912        157.44
     2.745489        564.71
     2.724594        183.95
     2.715926        236.34
     2.678823          0.36
     2.675707         96.72
     2.660516         27.07
     2.611065        182.04
     2.609699         73.65
     2.567370         18.90
     2.556890         51.50
     2.546058        199.71
     2.530403          0.03
     2.517299        116.19
     2.506862          0.01
     2.488656        184.93
     2.473625         72.34
     2.433881         91.41
     2.422461         91.21
     2.376789         88.21
     2.366123          5.74
     2.363975         11.71
     2.349885          1.01
     2.336743         17.32
     2.328111          1.95
     2.325241         52.14
     2.323898          5.26
     2.316937         16.77
     2.305683          2.63
     2.290386          1.00
     2.284181          0.67
     2.272050        172.47
     2.271290          2.62
     2.267738         24.54
     2.261798         51.66
     2.251250         73.40
     2.236998         27.91
     2.228776         33.69
     2.213444        167.27
     2.203966        107.53
     2.193667         42.18
     2.184831         62.03
     2.172583          1.22
     2.160061        102.58
     2.151773         48.07
     2.150240          7.36
     2.149169        139.37
     2.140214          4.72
     2.133445         38.66
     2.128851         45.48
     2.106093         11.61
     2.105224          0.51
     2.099863         20.53
     2.097161          0.12
     2.093279          1.78
     2.073264         59.72
     2.072000          0.08
     2.064111          6.46
     2.062937         11.24
     2.059137         55.94
     2.045272          7.06
     2.040026          3.13
     2.031639          0.40
     2.031410         21.54
     2.030960         35.73
     2.029096          2.74
     2.028895          2.17
     2.024838         19.59
     2.010904         14.21
     2.008789         11.34
     2.001899         63.09
     1.989923         23.26
     1.962867         10.39
     1.950866          0.13
     1.949910          0.86
     1.947351          1.20
     1.946395          6.71
     1.943622         52.97
     1.939344          3.90
     1.930264         33.53
     1.925090          3.91
     1.917190          3.69
     1.916081          9.97
     1.904083         17.24
     1.892020         18.67
     1.890350         25.18
     1.887974          8.66
     1.878428          0.04
     1.874708        145.19
     1.874362         53.97
     1.874056         24.95
     1.868058        167.99
     1.862724         21.25
     1.862521          7.29
     1.856297          2.68
     1.855018          2.55
     1.854190          6.18
     1.850209        100.66
     1.834275          0.87
     1.831997          1.44
     1.831103        159.78
     1.824470         23.19
     1.823088        206.62
     1.821301          5.85
     1.816396         11.57
     1.815362          6.93
     1.805546        136.16
     1.803334         41.88
     1.798336          2.25
     1.797649          3.17
     1.795362          7.24
     1.791902         38.19
     1.789480          0.08
     1.783692         69.64
     1.781428         20.00
     1.775415         17.07
     1.768919          0.35
     1.765542         20.36
     1.757080         27.71
     1.753155         18.92
     1.752518          9.00
     1.746665         27.31
     1.744662         78.51
     1.743480          3.76
     1.729545         15.54
     1.718441        140.40
     1.708471         79.90
     1.704038         63.24
     1.703957          1.43
     1.700926          8.99
     1.698853         71.81
     1.693099         42.32
     1.692474        167.13
     1.689240        110.17
     1.684874          2.16
     1.684309         34.85
     1.683641          3.10
     1.679331          6.33
     1.676167         43.12
     1.674792          0.20
     1.674743         34.05
     1.673314         41.12
     1.661894         12.07
     1.658188         49.53
     1.654202         73.68
     1.648006         14.53
     1.646252          2.68
     1.646056          5.10
     1.641064          8.75
     1.640914         10.18
     1.640850         31.13
     1.639832          4.27
     1.637260         29.13
     1.636264         60.54
     1.629154          0.42
     1.628741          0.53
     1.627905          0.00
     1.627542          5.20
     1.626523          3.43
     1.622219         10.21
     1.616065         61.12
     1.615068         25.53
     1.613417         25.27
     1.611196          3.31
     1.605359          0.06
     1.605055          8.63
     1.601429          8.14
     1.600944          1.68
     1.600109          1.17
     1.599328          0.38
     1.595474         21.61
     1.595336         80.06
     1.595166         12.39
     1.593920          1.93
     1.593421          7.99
     1.586036          0.53
     1.585455         37.33
     1.585179          0.12
     1.583136          5.75
     1.583039         18.68
     1.582102          5.41
     1.578759          0.21
     1.571669         18.09
     1.568032          7.57
     1.565488         34.95
     1.564409          0.01
     1.557716          0.23
     1.556902         33.50
     1.554410          7.17
     1.552439          4.15
     1.552274          8.67
     1.552074          2.31
     1.552049          6.43
     1.546495          0.72
     1.544624          3.94
     1.543369          5.76
     1.536639         24.44
     1.534804          0.06
     1.534393         61.42
     1.532227          4.69
     1.531377          3.02
     1.530157         11.06
     1.523220         62.58
     1.520424          0.00
     1.518607          4.19
     1.515664          3.04
     1.514193         23.16
     1.513799         35.25
     1.512324         64.81
     1.511825          1.93
     1.510379          1.74
     1.509972          6.13
     1.508164          3.99
     1.506429         15.05
     1.504075          6.60
     1.502807         25.65
     1.502613          0.02
     1.501672          4.16
     1.494014          3.18
     1.492515          7.08
     1.491065         32.76
     1.490794         20.89
     1.490031         38.58
     1.487989         45.21
     1.487352          3.55
     1.487193          0.15
     1.486553         15.56
     1.486435          0.15
     1.484519          9.04
     1.479697          3.19
     1.478468         76.49
     1.477440          1.33
     1.475956         11.30
     1.473783          0.40
     1.473682          2.38
     1.469957          1.99
     1.468932         11.39
     1.468665         54.92
     1.467916         25.80
     1.464032         17.83
     1.464026         10.73
     1.462445          0.66
     1.462111          6.26
     1.456657         31.03
     1.453916          3.82
     1.451606          5.27
     1.451277         14.55
     1.446406          2.01
     1.444239          4.72
     1.443817          6.04
     1.439736          0.49
     1.436697         45.74
     1.435806         22.13
     1.434516          0.03
     1.432073          2.41
     1.429570          4.81
     1.429388          3.52
     1.425991          0.36
     1.423835         14.63
     1.423555         10.41
     1.417694          1.32
     1.417357         10.37
     1.416744         18.53
     1.412770          2.86
     1.408940          6.00
     1.408286          2.35
     1.406873          0.33
     1.406106         14.12
     1.405925          4.71
     1.405659          3.07
     1.405121          7.24
     1.403292         11.04
     1.397487          0.06
     1.396842          0.07
     1.390643          4.62
     1.387130          0.92
     1.385742          0.19
     1.384190         32.28
     1.384107          2.31
     1.383251          1.24
     1.381956          1.21
     1.381223          2.85
     1.378638          9.57
     1.378294          5.57
     1.377932          1.79
     1.377794         40.59
     1.376028          8.55
     1.375285          0.28
     1.373152          0.33
     1.372758          0.04
     1.372744          6.59
     1.372149          1.41
     1.368115          4.57
     1.363679          0.01
     1.363230          1.25
     1.362297          5.98
     1.362040          0.98
     1.360336          0.01
     1.357963          2.18
     1.357635          2.51
     1.357040          2.19
     1.356303          8.89
     1.354274          0.33
     1.350252          2.34
     1.349836          4.72
     1.348964          0.11
     1.348091          0.31
     1.346692          5.22
     1.345167         18.23
     1.343936          0.09
     1.342092          2.79
     1.341705          2.00
     1.340168          0.01
     1.339412          0.82
     1.337853         34.67
     1.336052          0.02
     1.334250          4.17
     1.334089          5.02
     1.333097         12.87
     1.330338          4.60
     1.330258          0.12
     1.329766         10.17
     1.329452         10.25
     1.329147          0.23
     1.327446          0.90
     1.327169          0.05
     1.326487          1.18
     1.325480          0.92
     1.325174         25.76
     1.323552          9.11
     1.323104          1.01
     1.322556          0.16
     1.322165          0.60
     1.321153          0.05
     1.316306          0.02
     1.315328          3.55
     1.315235          1.86
     1.314304          5.73
     1.313568          0.02
     1.310708          0.26
     1.310212          0.01
     1.309156          1.28
     1.307811          7.89
     1.307729          2.31
     1.305771          0.92
     1.305532          4.93
     1.305413          0.78
     1.305225          9.95
     1.304982          0.01
     1.304849          2.76
     1.300041          5.61
     1.299044          0.00
     1.295830          0.25
     1.294304          2.20
     1.292427          2.68
     1.291759          8.91
     1.291413          3.87
     1.291183          1.74
     1.290035          0.22
     1.290015         13.96
     1.288096         10.55
     1.285744          1.60
     1.283685          0.00
     1.283407          0.06
     1.283115          0.18
     1.279563          5.76
     1.279253          1.29
     1.278445          2.82
     1.277388          3.53
     1.276303          5.00
     1.274484          0.40
     1.273963          1.05
     1.273343          0.08
     1.273048          9.02
     1.273029          0.00
     1.271522          9.07
     1.270253          1.03
     1.269594          4.34
     1.267813          0.98
     1.266195          0.25
     1.265202         13.28
     1.264329          0.14
     1.263728          0.12
     1.263380          2.85
     1.262531          1.43
     1.260861          0.33
     1.259716          0.36
     1.259569          0.09
     1.258937          0.01
     1.258649          0.63
     1.257595          0.87
     1.255247          2.08
     1.254985          2.45
     1.254856          0.47
     1.254284         11.22
     1.253431          1.32
     1.253392          2.39
     1.252457          0.94
     1.251227          1.16
     1.250030          1.22
     1.248845          2.61
     1.248385          0.19
     1.247747         19.35
     1.247622          6.59
     1.247491          0.51
     1.247441          1.44
     1.246170          6.11
     1.246151         10.95
     1.244328          0.00
     1.243240          0.58
     1.242761          0.78
     1.242054          7.80
     1.241827          0.74
     1.241437          0.69
     1.240174          0.87
     1.238862          0.25
     1.236812          8.33
     1.235339          5.94
     1.235092          3.36
     1.233473          0.02
     1.233460          0.00
     1.231753          0.78
     1.231664          0.31
     1.229457         12.98
     1.227902         19.12
     1.227893          2.73
     1.227714          0.22
     1.227033          5.10
     1.224542          0.37
     1.223355          3.35
     1.223259          1.65
     1.222407          0.00
     1.219433          0.29
     1.218695         10.43
     1.218576          0.02
     1.216941          2.49
     1.216531          5.41
     1.216314          1.12
     1.216033          0.12
     1.214583          0.69
     1.214433          3.65
     1.214201         14.04
     1.213736          7.05
     1.211247          0.34
     1.211231          1.60
     1.211224          0.30
     1.211085          5.03
     1.210186          7.37
     1.207433          4.32
     1.206501          3.94
     1.204882          0.17
     1.202982          1.36
     1.200374          0.51
     1.200283          0.61
     1.200229          6.39
     1.200203          0.49
     1.199809          0.00
     1.199670         13.50
     1.199557          1.18
##############################################################################
###                            Comments                                    ###
##############################################################################
###   Diffraction pattern calculated by Match!. 
###   I/Ic calculated by Match!. 
##############################################################################


