##############################################################################
###               Crystal structure data exported by Match!                ###
##############################################################################
###                           Data published by:                           ###
###                                                                        ###
###               COD (Crystallography Open Database)
##############################################################################
data_9003318
_citation_journal_full    'American Mineralogist'
_citation_journal_volume  '89'
_citation_page_first  '359'
_citation_page_last   '364'
_citation_year  '2004'
_citation_title  'Sodalite: High-temperature structures obtained from synchrotron radiationand Rietveld refinementsSample: T = 28 C'
loop_
_publ_author_name
  'Hassan I.'
  'Antao S. M.'
  'Parise J. B.'
_chemical_formula_sum  'Al3 Cl Na4 O12 Si3'
_chemical_name_mineral  'Sodalite'
_symmetry_space_group_name_H-M 'P -4 3 n'
_space_group_IT_number 218
_space_group_crystal_system 'cubic'
loop_
_symmetry_equiv_pos_as_xyz
   'x, y, z'
   'y+0.5, -x+0.5, -z+0.5'
   '-x, -y, z'
   '-y+0.5, x+0.5, -z+0.5'
   '-x+0.5, z+0.5, -y+0.5'
   'x, -y, -z'
   '-x+0.5, -z+0.5, y+0.5'
   '-z+0.5, -y+0.5, x+0.5'
   '-x, y, -z'
   'z+0.5, -y+0.5, -x+0.5'
   'z, x, y'
   'y, z, x'
   '-y, -z, x'
   'z, -x, -y'
   '-y, z, -x'
   '-z, -x, y'
   '-z, x, -y'
   'y, -z, -x'
   '-y+0.5, -x+0.5, z+0.5'
   'y+0.5, x+0.5, z+0.5'
   'x+0.5, -z+0.5, -y+0.5'
   'x+0.5, z+0.5, y+0.5'
   '-z+0.5, y+0.5, -x+0.5'
   'z+0.5, y+0.5, x+0.5'
_cell_length_a        8.88696
_cell_length_b        8.88696
_cell_length_c        8.88696
_cell_angle_alpha    90.0000
_cell_angle_beta     90.0000
_cell_angle_gamma    90.0000
loop_
_atom_site_label
_atom_site_fract_x
_atom_site_fract_y
_atom_site_fract_z
_atom_site_occupancy
_atom_site_B_iso_or_equiv
na      0.178   0.178   0.178    1.00000    1.397
al      0.250   0.000   0.500    1.00000    0.402
si      0.250   0.500   0.000    1.00000    0.402
o      0.140   0.150   0.439    1.00000    0.189
cl      0.000   0.000   0.000    1.00000    1.894
_cell_measurement_wavelength    1.541874
_cell_measurement_radiation   'x-rays'
_cell_measurement_temperature    301.100000
_exptl_crystal_density_diffrn    2.293000
loop_
_pd_peak_d_spacing
_pd_peak_intensity
     6.284030        327.07
     4.443480         57.11
     3.974369         10.88
     3.628086       1000.00
     3.142015          0.53
     2.810304         89.89
     2.565444        185.89
     2.464799          0.19
     2.375140        203.99
     2.221740         13.57
     2.155404          0.25
     2.094677        326.75
     1.987185         47.68
     1.939294          0.29
     1.894706         36.46
     1.814043         34.04
     1.777392          0.09
     1.742876         36.89
     1.650267          2.28
     1.622529         29.72
     1.571007        110.72
     1.524101         58.64
     1.502170          0.77
     1.481160        102.05
     1.461007          0.35
     1.441655        102.19
     1.405152          5.99
     1.387910          0.44
     1.371288         39.13
     1.339760         37.95
     1.324790          0.46
     1.310311         43.38
     1.282722         30.54
     1.269566          0.03
     1.256806          2.23
     1.232400          7.08
     1.220718          0.50
     1.209362         98.42
     1.187570          7.57
     1.166915         24.30
     1.156984          0.20
     1.137859          0.70
     1.128645         43.75
     1.110870          5.17
     1.102292          0.24
     1.093909         24.86
     1.077702         24.35
     1.069864          0.50
     1.062195          3.61
     1.047338          5.54
     1.040140          0.06
     1.033088          4.78
     1.026178          0.45
     1.019404         23.15
     1.012763          1.17
##############################################################################
###                            Comments                                    ###
##############################################################################
###   Diffraction pattern calculated by Match!. 
###   I/Ic calculated by Match!. 
###   Space group has been derived from given symmetry operations. 
##############################################################################


