##############################################################################
###               Crystal structure data exported by Match!                ###
##############################################################################
###                           Data published by:                           ###
###                                                                        ###
###               COD (Crystallography Open Database)
##############################################################################
data_4339591
_citation_journal_full    'Inorganic chemistry'
_citation_journal_volume  '46(21)'
_citation_page_first  '8684'
_citation_page_last   '8689'
_citation_year  '2007'
_citation_title  'Magnetic properties of synthetic libethenite Cu2PO4OH: a new spin-gap system.'
loop_
_publ_author_name
  'Belik Alexei A.'
  'Koo Hyun-Joo'
  'Whangbo Myung-Hwan'
  'Tsujii Naohito'
  'Naumov Pance'
  'Takayama-Muromachi Eiji'
_chemical_formula_sum  'Cu2 H O5 P'
_chemical_name_common  'libethenite (mineralogical)'
_symmetry_space_group_name_H-M 'P n n m'
_space_group_IT_number 58
_space_group_crystal_system 'orthorhombic'
loop_
_symmetry_equiv_pos_as_xyz
   'x, y, z'
   '-x, -y, z'
   'x+0.5, -y+0.5, -z+0.5'
   '-x+0.5, y+0.5, -z+0.5'
   '-x, -y, -z'
   'x, y, -z'
   '-x+0.5, y+0.5, z+0.5'
   'x+0.5, -y+0.5, z+0.5'
_cell_length_a        8.05130
_cell_length_b        8.37750
_cell_length_c        5.87990
_cell_angle_alpha    90.0000
_cell_angle_beta     90.0000
_cell_angle_gamma    90.0000
_cell_formula_units_Z 4
loop_
_atom_site_label
_atom_site_fract_x
_atom_site_fract_y
_atom_site_fract_z
_atom_site_occupancy
_atom_site_B_iso_or_equiv
cu      0.000   0.500   0.249    1.00000    0.479
cu      -0.362   0.375   0.500    1.00000    0.605
p      -0.233   0.252   0.000    1.00000    0.284
o      -0.133   0.412   0.000    1.00000    0.424
o      -0.103   0.116   0.000    1.00000    1.080
o      -0.341   0.239   0.211    1.00000    0.773
o      -0.124   0.397   0.500    1.00000    0.386
h      -0.095   0.289   0.500    1.00000    1.578
_cell_measurement_wavelength    1.541874
_cell_measurement_radiation   'x-rays'
_cell_measurement_temperature    200.000000
_exptl_crystal_density_diffrn    4.003000
_exptl_crystal_colour            'green'
loop_
_pd_peak_d_spacing
_pd_peak_intensity
     5.805024        990.70
     4.812774       1000.00
     4.748430        783.86
     4.188750         17.74
     4.130990         25.18
     4.025650         19.33
     3.715937        551.93
     3.628464        213.37
     3.141225          7.00
     3.087850          1.47
     2.939950        109.78
     2.902512        917.69
     2.638315        530.86
     2.622770        915.48
     2.602680        280.88
     2.555821        427.51
     2.522478        202.01
     2.441474        201.82
     2.407105        344.15
     2.406387        147.01
     2.374215        364.11
     2.343963        165.57
     2.305609        350.46
     2.294500          9.68
     2.284254         12.63
     2.259733         54.96
     2.137517          1.12
     2.109324          0.05
     2.094375          7.55
     2.065495        136.03
     2.026920          7.94
     2.012825         12.48
     1.963579         49.68
     1.957127         19.82
     1.935008         26.70
     1.928850         68.39
     1.916258        114.13
     1.908433         67.44
     1.904352         88.52
     1.857969         24.29
     1.856979         12.98
     1.856963        111.61
     1.838037          6.02
     1.814232         40.64
     1.808819         47.49
     1.791639         52.49
     1.771626          0.01
     1.733600          3.52
     1.733587         32.57
     1.724467          0.07
     1.705795        360.78
     1.668754          0.52
     1.660862        205.57
     1.651110          1.40
     1.640357        108.00
     1.632859          1.40
     1.629154          2.63
     1.624316         57.79
     1.616329        281.01
     1.611357         38.27
     1.604258         31.47
     1.589627         71.35
     1.582810         88.49
     1.581314         68.37
     1.580024        107.42
     1.573330         38.81
     1.573320         65.58
     1.570612        128.88
     1.555294         49.38
     1.553074          3.44
     1.546868          8.08
     1.543925        277.66
     1.527055         71.34
     1.503025         49.86
     1.495966          0.25
     1.490281          0.29
     1.480629          8.23
     1.469975        188.60
     1.456202          3.85
     1.451256        219.77
     1.439613          1.01
     1.432469         35.15
     1.427468         30.87
     1.424997         29.20
     1.421262          7.59
     1.408981         20.43
     1.408974          0.03
     1.396250          0.49
     1.394956         13.81
     1.392644         39.22
     1.387044          6.98
     1.384901         31.38
     1.381478          0.50
     1.380799          3.35
     1.376997          3.19
     1.375716         20.36
     1.368943         58.48
     1.366908         42.97
     1.362417         10.08
     1.357283          4.17
     1.348399          0.30
     1.341883         23.04
     1.339541          0.23
     1.338275         72.02
     1.331399          9.12
     1.324994         11.91
     1.319157         59.21
     1.311385        107.29
     1.301340         40.58
     1.292582          1.47
     1.287738          1.09
     1.287162         20.61
     1.284111         87.58
     1.279583         69.06
     1.277911         23.25
     1.276566          1.88
     1.274249         79.99
     1.273569         17.78
     1.262758          9.65
     1.261239         48.23
     1.260285         63.80
     1.257929         26.40
     1.257924         21.47
     1.254538         24.05
     1.248759         19.99
     1.247503         17.73
     1.246043         14.73
     1.244201          0.60
     1.238646          4.66
     1.237752          0.69
     1.232205         11.48
     1.230702         56.76
     1.220737         28.75
     1.214253          0.58
     1.212044          0.74
     1.209488          0.72
     1.207980          9.33
     1.203552         13.76
     1.203194          1.14
     1.192697          3.94
     1.189979          0.93
     1.187108          0.20
     1.184684          2.47
     1.183779          1.32
     1.179548         14.41
     1.175366          1.33
     1.172740         10.37
     1.171981          3.03
     1.170944          0.46
     1.170522          6.65
     1.166330          0.21
     1.164562          9.15
     1.163633          6.14
     1.161005         10.77
     1.160494          0.14
     1.152805          9.52
     1.152568          2.10
     1.150589          0.73
     1.147250         17.05
     1.147165          2.34
     1.142127          7.90
     1.141473          5.97
     1.139496          4.74
     1.139013          3.48
     1.136498          0.04
     1.129866          3.72
     1.128792          4.44
     1.126020          1.52
     1.126017          3.41
     1.125936          0.50
     1.121175          0.83
     1.118693          0.23
     1.118683          1.23
     1.118532          0.01
     1.109567          0.01
     1.109132          0.97
     1.098104         56.69
     1.097906          0.47
     1.097695          0.91
     1.094727         43.51
     1.094370         15.73
     1.093031         42.82
     1.092490          2.57
     1.089920         16.38
     1.089911          4.43
     1.083798          9.40
     1.079852         32.04
     1.077113          6.06
     1.076641         31.61
     1.076230         15.01
     1.074621         12.10
     1.074110         31.07
     1.070474         11.34
     1.069683         12.09
     1.068758         36.16
     1.068689          0.15
     1.068319         11.20
     1.065576          8.24
     1.063507         26.46
     1.062481         44.96
     1.054907         14.05
     1.054662         88.40
     1.050919         25.72
     1.047382          0.48
     1.047187         43.77
     1.047075          3.37
     1.046535          0.10
     1.046526          3.07
     1.043176          0.44
     1.038441          0.09
     1.038328          0.76
     1.037739          1.05
     1.032747        139.22
     1.031151          0.37
     1.029283          0.84
     1.028687          0.78
     1.024515          2.81
     1.022615          8.83
     1.021772          5.82
     1.021421          9.49
     1.017180         11.86
     1.013460          0.73
     1.013299          0.32
     1.013296         10.29
     1.012358          0.00
     1.011865          9.52
     1.008161          0.00
     1.008007         11.66
     1.006413         28.54
##############################################################################
###                            Comments                                    ###
##############################################################################
###   Diffraction pattern calculated by Match!. 
###   I/Ic calculated by Match!. 
##############################################################################


