##############################################################################
###               Crystal structure data exported by Match!                ###
##############################################################################
###                           Data published by:                           ###
###                                                                        ###
###               COD (Crystallography Open Database)
##############################################################################
data_8103496
_citation_journal_full    'Zeitschrift fuer Kristallographie, Kristallgeometrie, Kristallphysik, Kristallchemie (-144,1977)'
_citation_journal_volume  '64'
_citation_page_first  '475'
_citation_page_last   '490'
_citation_year  '1926'
_citation_title  'Ueber die Kristallstruktur von Hausmannit (Mn Mn2 O4).'
loop_
_publ_author_name
  'Aminoff G.'
_chemical_formula_sum  'Mn3 O4'
_chemical_name_common  'Manganese(II,III) oxide'
_symmetry_space_group_name_H-M 'I 41/a m d'
_space_group_IT_number 141
_space_group_crystal_system 'tetragonal'
loop_
_symmetry_equiv_pos_as_xyz
   'x, y, z'
   'x+0.5, y+0.5, z+0.5'
   '-x, -y+0.5, -z+0.25'
   '-x+0.5, -y, -z+0.75'
   '-y, x+0.5, z+0.25'
   '-y+0.5, x, z+0.75'
   '-x, -y, z'
   '-x+0.5, -y+0.5, z+0.5'
   'y, -x+0.5, z+0.25'
   'y+0.5, -x, z+0.75'
   'y, -x, -z'
   'y+0.5, -x+0.5, -z+0.5'
   '-y, x, -z'
   '-y+0.5, x+0.5, -z+0.5'
   'x, -y+0.5, -z+0.25'
   'x+0.5, -y, -z+0.75'
   '-x, y+0.5, -z+0.25'
   '-x+0.5, y, -z+0.75'
   'y, x, -z'
   'y+0.5, x+0.5, -z+0.5'
   '-y, -x, -z'
   '-y+0.5, -x+0.5, -z+0.5'
   'x, y+0.5, -z+0.25'
   'x+0.5, y, -z+0.75'
   '-x, y, z'
   '-x+0.5, y+0.5, z+0.5'
   'x, -y, z'
   'x+0.5, -y+0.5, z+0.5'
   '-y, -x+0.5, z+0.25'
   '-y+0.5, -x, z+0.75'
   'y, x+0.5, z+0.25'
   'y+0.5, x, z+0.75'
_cell_length_a        8.16000
_cell_length_b        8.16000
_cell_length_c        9.44000
_cell_angle_alpha    90.0000
_cell_angle_beta     90.0000
_cell_angle_gamma    90.0000
_cell_formula_units_Z 4
loop_
_atom_site_label
_atom_site_fract_x
_atom_site_fract_y
_atom_site_fract_z
_atom_site_occupancy
_atom_site_B_iso_or_equiv
mn      0.000   0.000   0.000    1.00000    1.000
mn      0.000   0.250   0.625    1.00000    1.000
o      0.000   0.265   0.390    1.00000    1.000
_cell_measurement_wavelength    1.541874
_cell_measurement_radiation   'x-rays'
_exptl_crystal_density_diffrn    2.417000
loop_
_pd_peak_d_spacing
_pd_peak_intensity
     6.173322         57.59
     4.080000        124.62
     3.653358        174.20
     3.403784       1000.00
     3.086661         72.95
     2.935937        217.20
     2.884996        227.31
     2.613667         18.57
     2.383074          3.61
     2.360000         55.06
     2.264153         92.20
     2.200812        206.74
     2.057774         92.63
     2.042863         30.64
     2.040000        257.91
     1.936980          4.33
     1.872585          0.03
     1.839407         77.47
     1.837316          0.00
     1.826679        328.93
     1.824631         19.54
     1.781133         21.03
     1.741492          0.18
     1.701892         32.93
     1.676870          9.62
     1.675286         69.23
     1.608145          5.95
     1.550984         46.19
     1.543331         38.50
     1.517915         10.97
     1.515567         17.80
     1.496122         73.19
     1.467969         11.97
     1.449765          2.49
     1.448741         62.93
     1.443509         16.88
     1.442498         61.28
     1.366085         44.39
     1.365228          1.74
     1.360000          3.60
     1.343327         10.74
     1.341699         11.40
     1.330524          0.01
     1.328152         36.04
     1.324508          0.04
     1.306833          6.94
     1.290209         17.07
     1.264960         19.54
     1.262922          0.14
     1.245850          0.00
     1.244550          0.03
     1.234664         45.80
     1.234032          0.42
     1.230793         13.08
     1.217786          2.90
     1.208223          0.05
     1.206446         19.56
     1.203713          0.11
     1.191537         11.42
     1.181741          3.15
     1.181186         13.30
     1.180000         11.43
     1.178345          2.97
     1.158493         11.35
     1.156927          1.17
     1.134595          0.03
     1.133544          2.95
     1.132076         81.88
     1.131588          3.12
     1.121930          7.17
     1.120981          8.47
     1.114438          0.00
     1.113044         11.88
     1.100406          7.90
     1.093555          1.27
     1.093115          8.66
     1.092175          6.76
     1.073120          0.06
     1.056272         13.36
     1.055876          0.03
     1.045645          4.77
     1.044877          5.05
     1.040330          0.76
     1.039573          0.12
     1.038440         16.20
     1.036696          0.05
     1.028887          3.68
     1.022560          0.51
     1.021431         26.79
     1.020357          3.82
     1.020000         14.39
     1.008075         16.73
     1.007386         10.18
##############################################################################
###                            Comments                                    ###
##############################################################################
###   Diffraction pattern calculated by Match!. 
###   I/Ic calculated by Match!. 
###   Space group has been derived from given symmetry operations. 
##############################################################################


