##############################################################################
###               Crystal structure data exported by Match!                ###
##############################################################################
###                           Data published by:                           ###
###                                                                        ###
###               COD (Crystallography Open Database)
##############################################################################
data_9013426
_citation_journal_full    'Mineralogical Magazine'
_citation_journal_volume  '64'
_citation_page_first  '569'
_citation_page_last   '576'
_citation_year  '2000'
_citation_title  'Crystal structure of the high-pressure monoclinic phase-II of cristobalite,SiO2 Locality: synthetic Note: P = 3.5 GPa, refinement by unconstrainedRietveld analysis'
loop_
_publ_author_name
  'Dove M. T.'
  'Craig M. S.'
  'Keen D. A.'
  'Marshall W. G.'
  'Redfern S. A. T.'
  'Trachenko K. O.'
  'Tucker M. G.'
_chemical_formula_sum  'O2 Si'
_chemical_name_mineral  'Cristobalite'
_symmetry_space_group_name_H-M 'P 1 21/c 1'
_space_group_IT_number 14
_space_group_crystal_system 'monoclinic'
loop_
_symmetry_equiv_pos_as_xyz
   'x, y, z'
   '-x, y+0.5, -z+0.5'
   '-x, -y, -z'
   'x, -y+0.5, z+0.5'
_cell_length_a        8.37800
_cell_length_b        4.60180
_cell_length_c        9.05680
_cell_angle_alpha    90.0000
_cell_angle_beta    124.9490
_cell_angle_gamma    90.0000
loop_
_atom_site_label
_atom_site_fract_x
_atom_site_fract_y
_atom_site_fract_z
_atom_site_occupancy
_atom_site_B_iso_or_equiv
si      0.373   0.734   0.219    1.00000    1.000
si      0.134   0.978   0.853    1.00000    1.000
o      0.185   0.875   0.036    1.00000    0.221
o      0.306   0.595   0.333    1.00000    0.221
o      0.536   0.974   0.332    1.00000    0.221
o      0.930   0.805   0.691    1.00000    0.221
_cell_measurement_wavelength    1.541874
_cell_measurement_radiation   'x-rays'
_cell_measurement_pressure       3500000.000000
_exptl_crystal_density_diffrn    2.789000
loop_
_pd_peak_d_spacing
_pd_peak_intensity
     6.867131          1.56
     4.524880          1.45
     3.949782         50.67
     3.911266        401.41
     3.848733       1000.00
     3.822826        793.05
     3.711759        669.96
     3.433565          1.38
     3.226425         95.26
     3.082519        172.92
     3.028250        741.58
     2.952288        389.86
     2.889088         42.53
     2.788678        162.72
     2.751949        247.20
     2.684742        174.55
     2.496002         46.44
     2.466927         74.78
     2.384939         16.80
     2.318945          0.60
     2.301465         95.08
     2.300900          4.62
     2.289044          9.42
     2.263750         71.34
     2.262440        153.83
     2.241014         39.09
     2.204519        135.08
     2.197754         78.91
     2.181693          8.09
     2.179400          6.75
     2.174449         11.00
     2.124083          6.16
     2.075782          2.96
     2.050967         86.00
     2.049491          1.17
     2.030330          0.71
     2.012484          5.20
     2.010877         18.24
     1.997151         28.71
     1.974891          8.36
     1.966016         92.42
     1.955633         20.04
     1.928553         12.66
     1.924366         14.26
     1.911413          0.06
     1.892185          2.29
     1.889369         33.47
     1.855879          2.11
     1.842634        151.93
     1.828291         26.67
     1.819147          2.98
     1.807798         10.49
     1.782421          9.11
     1.775385         60.59
     1.774778         37.91
     1.757797          0.01
     1.747072         18.07
     1.739561         14.64
     1.723102         18.68
     1.721179          9.22
     1.716783         53.80
     1.713011          3.34
     1.685016         10.94
     1.679288         16.91
     1.664467          1.05
     1.641793         27.07
     1.626541         22.20
     1.622774        103.63
     1.613212          6.20
     1.608493          6.59
     1.599894          8.21
     1.584552          9.19
     1.580381          1.90
     1.578304         26.44
     1.574146         24.70
     1.562297         62.79
     1.560724         22.63
     1.546327          1.85
     1.541260         21.07
     1.539737         18.14
     1.533564          3.85
     1.524626         31.29
     1.514125          4.94
     1.508293          1.63
     1.506137          1.78
     1.504354          0.00
     1.502199          0.44
     1.498221          0.50
     1.497040          4.94
     1.492936          6.61
     1.485499         11.65
     1.480181         11.37
     1.476144         41.65
     1.465988          9.32
     1.461158          0.08
     1.459961          6.91
     1.452729          1.99
     1.444544         68.48
     1.438859         26.33
     1.438684          4.36
     1.433270         21.93
     1.433224         24.87
     1.424930         11.61
     1.421980         15.94
     1.419511          1.64
     1.417645         35.99
     1.413668         20.13
     1.412982          1.18
     1.410525         19.70
     1.401422         90.48
     1.400527         45.12
     1.394339          6.20
     1.392642          0.76
     1.375974          2.97
     1.373426          1.10
     1.370579          3.50
     1.362988          0.91
     1.361312         27.85
     1.358195         57.20
     1.354288          7.19
     1.346721          0.17
     1.344024          9.38
     1.342371         27.83
     1.340633         10.42
     1.336451         35.02
     1.334428          1.37
     1.331871          9.19
     1.328860         16.69
     1.328534          9.08
     1.328185         85.19
     1.325230          0.43
     1.322366          0.07
     1.321159         27.30
     1.316594          2.19
     1.316062         32.38
     1.305392          0.14
     1.305026         22.39
     1.303755         17.06
     1.301838         20.70
     1.301530          5.27
     1.300055         28.12
     1.288663         18.63
     1.287082          0.34
     1.282911          3.39
     1.279507          3.47
     1.276695          0.32
     1.274275          5.43
     1.269630          7.73
     1.265112          7.04
     1.261426          2.94
     1.255457         18.66
     1.253708          0.64
     1.253438          8.43
     1.251087          3.92
     1.248001          5.03
     1.247529          9.86
     1.243809         19.19
     1.243563          1.79
     1.237253         15.59
     1.235786          6.76
     1.235352          3.17
     1.233649         18.05
     1.233463         34.83
     1.232868         34.77
     1.219602          7.18
     1.215416          6.29
     1.212751          6.22
     1.201652          2.19
     1.200451         39.25
     1.199489          0.94
     1.196891          0.03
     1.195117          5.53
     1.194821         27.20
     1.194021          7.46
     1.192469          0.10
     1.189668          0.26
     1.188560          3.73
     1.185891          7.16
     1.182349         36.20
     1.179309         14.38
     1.171613          2.38
     1.169041          3.76
     1.168504         26.26
     1.163477          4.24
     1.159472          1.15
     1.158321          1.13
     1.156744         16.79
     1.155925          1.45
     1.154027          6.54
     1.152132          5.27
     1.150732          0.02
     1.150450          8.49
     1.150216         18.08
     1.144522          2.05
     1.143857          1.16
     1.140752          2.14
     1.137812          4.09
     1.136879          1.05
     1.135108          6.15
     1.134638          1.42
     1.133987          8.78
     1.131875          5.51
     1.131307          4.37
     1.131220          8.47
     1.126885          5.82
     1.126477          0.03
     1.123301         17.03
     1.121097         15.57
     1.120847          6.26
     1.120507          4.64
     1.120183          6.76
     1.120124          3.25
     1.119366          1.23
     1.117851          2.75
     1.115958         13.35
     1.114977          0.11
     1.112500          1.41
     1.111587          3.62
     1.110813         14.35
     1.110685          3.70
     1.109187          5.36
     1.108669          4.55
     1.106085          0.05
     1.104642         10.78
     1.103250         14.17
     1.102259         20.74
     1.102115          0.14
     1.100007          8.41
     1.099323          0.17
     1.098877         17.88
     1.098516          3.60
     1.093966          0.24
     1.091260          1.26
     1.090846          4.79
     1.089700         15.13
     1.088347         20.98
     1.087225          0.61
     1.086615          0.94
     1.085786          0.16
     1.084944          0.76
     1.080511          0.19
     1.078306         18.65
     1.077757          2.79
     1.075475         12.94
     1.072826          1.42
     1.070680          6.50
     1.070484          2.74
     1.069526          2.24
     1.069237         13.58
     1.067118          0.00
     1.066824          0.12
     1.063504          0.02
     1.062041          0.22
     1.060583          8.99
     1.058095          0.09
     1.057987          0.38
     1.057452          2.06
     1.057025          0.23
     1.055780          0.33
     1.055544          3.90
     1.052067          2.91
     1.049758          0.02
     1.043215          3.26
     1.042960          0.55
     1.037891          1.19
     1.036033          0.22
     1.034839          1.46
     1.034636          1.02
     1.033416          7.74
     1.032906          6.92
     1.031776          1.40
     1.031551          0.09
     1.030402         14.56
     1.030365          2.04
     1.027927          0.11
     1.027537          1.24
     1.027506          0.01
     1.025484          8.56
     1.024845          0.63
     1.024745          2.91
     1.023216          0.11
     1.021121          0.01
     1.019994          5.38
     1.018706          4.62
     1.018177          0.22
     1.016895         14.22
     1.016488         14.49
     1.015165          4.33
     1.012460          1.68
     1.011600         16.67
     1.010734          0.00
     1.010179          0.88
     1.009430          0.05
     1.009417          2.13
     1.007123          0.90
##############################################################################
###                            Comments                                    ###
##############################################################################
###   Diffraction pattern calculated by Match!. 
###   I/Ic calculated by Match!. 
###   Space group has been derived from given symmetry operations. 
##############################################################################


