##############################################################################
###               Crystal structure data exported by Match!                ###
##############################################################################
###                           Data published by:                           ###
###                                                                        ###
###               COD (Crystallography Open Database)
##############################################################################
data_4124083
_citation_journal_full    'Journal of the American Chemical Society'
_citation_journal_volume  '126'
_citation_page_first  '9769'
_citation_page_last   '9775'
_citation_year  '2004'
_citation_title  'Chemical evaluation of hypothetical uninodal zeolites'
loop_
_publ_author_name
  'Foster M.D.'
  'Bell R.G.'
  'Friedrichs O.D.'
  'Paz F.A.A.'
  'Klinowski J.'
_chemical_formula_sum  'O2 Si'
_chemical_name_common  'Silica'
_symmetry_space_group_name_H-M 'P -3 1 m'
_space_group_IT_number 162
_space_group_crystal_system 'trigonal (hexagonal axes)'
loop_
_symmetry_equiv_pos_as_xyz
   'x, y, z'
   '-y, x-y, z'
   '-x+y, -x, z'
   '-y, -x, -z'
   '-x+y, y, -z'
   'x, x-y, -z'
   '-x, -y, -z'
   'y, -x+y, -z'
   'x-y, x, -z'
   'y, x, z'
   'x-y, -y, z'
   '-x, -x+y, z'
_cell_length_a        8.37598
_cell_length_b        8.37598
_cell_length_c        3.88479
_cell_angle_alpha    90.0000
_cell_angle_beta     90.0000
_cell_angle_gamma   120.0000
_cell_formula_units_Z 6
loop_
_atom_site_label
_atom_site_fract_x
_atom_site_fract_y
_atom_site_fract_z
_atom_site_occupancy
_atom_site_B_iso_or_equiv
o      0.500   0.500   0.500    1.00000    1.000
o      0.500   0.500   0.000    1.00000    1.000
si      0.646   0.646   0.677    1.00000    1.000
o      0.668   0.834   0.500    1.00000    1.000
_cell_measurement_wavelength    1.541874
_cell_measurement_radiation   'x-rays'
_exptl_crystal_density_diffrn    2.536000
loop_
_pd_peak_d_spacing
_pd_peak_intensity
     7.253812        140.33
     4.187990       1000.00
     3.884790        370.43
     3.626906        179.20
     3.424597          7.15
     2.848125        616.82
     2.741683          5.28
     2.651094         32.37
     2.417937         77.60
     2.240009         28.14
     2.093995         62.65
     2.052791         15.90
     2.011845         19.57
     1.942395          8.37
     1.876291          0.35
     1.843269        122.84
     1.813453          0.02
     1.786493         14.33
     1.762096         75.95
     1.712298          3.55
     1.664139          4.99
     1.643231         16.20
     1.584941          6.98
     1.582912         66.44
     1.529695         11.26
     1.514295         75.45
     1.465893         99.08
     1.450762          4.51
     1.424062        136.81
     1.397388          4.71
     1.395997         10.67
     1.370842          0.43
     1.359084          3.91
     1.325547          7.61
     1.313748          3.02
     1.302823          0.00
     1.294930          2.67
     1.292718         20.62
     1.274777          1.01
     1.263756          5.88
     1.237141          6.41
     1.235212          7.25
     1.227061         31.01
     1.219532          5.50
     1.208969         52.93
     1.192519          5.78
     1.170898          0.24
     1.162341          3.85
     1.161539         14.22
     1.154361         19.34
     1.141532         36.94
     1.140016          3.73
     1.133598         19.48
     1.120004         10.77
     1.112860         28.54
     1.106196          3.72
     1.101352         21.24
     1.088873          3.51
     1.081981          3.86
     1.063904          8.96
     1.053836          0.06
     1.046998          1.53
     1.036259          6.79
     1.026396          1.67
     1.021977          1.73
     1.016272          2.47
     1.010926          7.90
##############################################################################
###                            Comments                                    ###
##############################################################################
###   Diffraction pattern calculated by Match!. 
###   I/Ic calculated by Match!. 
###   Space group has been derived from given symmetry operations. 
##############################################################################


