##############################################################################
###               Crystal structure data exported by Match!                ###
##############################################################################
###                           Data published by:                           ###
###                                                                        ###
###               COD (Crystallography Open Database)
##############################################################################
data_9009834
_citation_journal_full    'Mineralogy and Petrology'
_citation_journal_volume  '40'
_citation_page_first  '127'
_citation_page_last   '136'
_citation_year  '1989'
_citation_title  'Cornetite: modulated densely-packed Cu2+ oxysalt Locality: Mine de L'Etoile, Katanga, Zaire'
loop_
_publ_author_name
  'Eby R. K.'
  'Hawthorne F. C.'
_chemical_formula_sum  'Cu3 H3 O7 P'
_chemical_name_mineral  'Cornetite'
_symmetry_space_group_name_H-M 'P b c a'
_space_group_IT_number 61
_space_group_crystal_system 'orthorhombic'
loop_
_symmetry_equiv_pos_as_xyz
   'x, y, z'
   '-x+0.5, -y, z+0.5'
   'x+0.5, -y+0.5, -z'
   '-x, y+0.5, -z+0.5'
   '-x, -y, -z'
   'x+0.5, y, -z+0.5'
   '-x+0.5, y+0.5, z'
   'x, -y+0.5, z+0.5'
_cell_length_a       10.85400
_cell_length_b       14.05300
_cell_length_c        7.08600
_cell_angle_alpha    90.0000
_cell_angle_beta     90.0000
_cell_angle_gamma    90.0000
loop_
_atom_site_label
_atom_site_fract_x
_atom_site_fract_y
_atom_site_fract_z
_atom_site_occupancy
_atom_site_B_iso_or_equiv
cu      0.019   0.127   0.188    1.00000    1.000
cu      0.194   0.246   0.403    1.00000    1.000
cu      0.100   0.452   0.109    1.00000    1.000
p      0.380   0.386   0.207    1.00000    1.000
o      0.269   0.410   0.086    1.00000    1.000
o      0.921   0.473   0.175    1.00000    1.000
o      0.490   0.360   0.081    1.00000    1.000
o      0.350   0.303   0.342    1.00000    1.000
o      0.056   0.339   0.955    1.00000    1.000
o      0.182   0.188   0.147    1.00000    1.000
o      0.134   0.568   0.245    1.00000    1.000
_cell_measurement_wavelength    1.541874
_cell_measurement_radiation   'x-rays'
_exptl_crystal_density_diffrn    4.136000
loop_
_pd_peak_d_spacing
_pd_peak_intensity
     7.026500         24.77
     5.466218        253.35
     5.427000        203.54
     5.062606        414.12
     4.989389          5.14
     4.533360        270.28
     4.295063        688.62
     4.119288          6.60
     3.676651        478.85
     3.673010        376.60
     3.546058         90.04
     3.543000         88.40
     3.513250         34.05
     3.368102          2.28
     3.275343         43.12
     3.171143        672.66
     3.163580         60.70
     3.147615        189.50
     3.140773        106.50
     3.037200       1000.00
     3.023064        235.54
     2.966740        122.97
     2.949208        722.09
     2.928977         62.28
     2.902761        199.01
     2.734608        466.37
     2.733109          2.21
     2.722795          7.56
     2.713500          7.16
     2.664287         29.38
     2.654818          9.32
     2.540045        124.56
     2.531379        228.19
     2.531303        140.91
     2.506360         38.78
     2.495762        164.16
     2.494695        165.62
     2.493834          3.54
     2.491284        155.64
     2.431302        340.87
     2.383772        405.55
     2.381544         10.42
     2.374711         32.84
     2.354019          0.05
     2.348004        374.26
     2.342167         58.64
     2.277472         19.35
     2.266680         16.70
     2.238887         92.49
     2.228830          5.86
     2.227009         19.67
     2.223835        114.41
     2.192724          0.92
     2.178578          9.14
     2.157950         23.18
     2.154273          4.95
     2.150444        134.17
     2.147532         97.20
     2.140494         98.96
     2.129398         20.24
     2.118087          2.16
     2.070331        269.32
     2.069680         32.24
     2.059644          0.05
     2.057772        224.72
     2.055219          6.51
     2.053791         22.27
     2.053311        232.54
     2.040361         46.18
     1.990557          5.82
     1.965824         36.12
     1.960181        104.34
     1.958525         50.08
     1.957219         13.05
     1.953834          0.89
     1.952159         50.98
     1.928977         48.59
     1.922927         28.45
     1.903842          0.23
     1.901670         60.78
     1.897647          1.28
     1.894561         41.13
     1.882872          8.65
     1.882044         31.65
     1.880947         10.52
     1.850993         13.28
     1.843609          0.46
     1.838325         22.78
     1.836505          1.69
     1.835143         51.65
     1.822073         27.17
     1.819726         42.84
     1.809000          6.71
     1.794196        145.45
     1.789929          8.08
     1.787022          7.18
     1.783664         84.79
     1.773029          3.56
     1.771500         71.67
     1.767440         48.86
     1.756625         26.52
     1.751872        120.99
     1.748366         12.38
     1.739307         55.64
     1.734991        104.85
     1.726940         13.60
     1.724473         76.78
     1.723485         17.80
     1.721471         12.52
     1.720004         21.06
     1.719166         50.67
     1.717748          3.01
     1.715526          6.10
     1.709797          0.63
     1.705015          2.72
     1.703926          1.45
     1.700668        103.19
     1.696633         63.50
     1.687535         14.56
     1.684360          0.04
     1.684051          9.48
     1.672088         57.37
     1.671256          5.72
     1.669652          1.55
     1.665216          4.34
     1.663130          8.52
     1.662667          0.30
     1.643943          1.30
     1.641625          0.06
     1.637994          0.63
     1.637672         59.02
     1.637610          3.17
     1.626627          1.91
     1.617480          6.38
     1.613889         34.95
     1.611140         10.42
     1.608315         10.87
     1.600655          9.98
     1.591019          0.00
     1.590137          0.51
     1.588958         27.66
     1.588076         58.13
     1.585572          6.67
     1.584751         15.58
     1.581790         49.00
     1.580919          4.24
     1.573807          7.43
     1.573591         42.38
     1.572950        221.69
     1.570387          1.12
     1.568423         29.60
     1.565256          0.92
     1.558502         23.73
     1.557520         74.73
     1.553399          2.72
     1.551737          0.19
     1.545868        323.24
     1.542331         31.38
     1.523544         73.17
     1.521154          5.48
     1.518600          9.05
     1.514720         55.43
     1.512684          0.42
     1.511532         52.25
     1.511120          6.09
     1.510033         44.63
     1.506496        133.50
     1.506007         15.08
     1.504745          0.12
     1.500570         35.71
     1.487270          0.36
     1.484569         41.31
     1.483370          1.05
     1.480715         27.65
     1.475175         24.52
     1.474604         64.11
     1.472320          0.00
     1.468694         26.81
     1.468014         69.67
     1.464489         19.48
     1.454836          2.79
     1.452235          4.18
     1.451380          9.79
     1.449328         80.13
     1.444585         81.77
     1.443675          3.39
     1.443180          3.65
     1.443014          0.12
     1.441253          1.75
     1.431688          0.06
     1.428740         15.45
     1.420492         30.05
     1.417983         99.54
     1.416616          4.48
     1.414160         50.73
     1.413291         29.05
     1.412881          7.97
     1.409549          8.64
     1.408933          7.66
     1.407090          0.17
     1.405300         27.84
     1.405159          0.94
     1.403331          0.02
     1.401061          8.43
     1.398298         63.36
     1.397812          0.11
     1.397771          7.13
     1.392326          0.94
     1.390956         21.63
     1.389371          0.05
     1.389225          0.40
     1.384571         68.34
     1.381750          1.25
     1.378453          0.60
     1.377983          4.82
     1.373096          0.02
     1.372492          0.39
     1.367470          0.96
     1.367304          8.26
     1.366554          9.15
     1.365993         97.40
     1.364736          0.02
     1.364284          2.92
     1.361397          3.06
     1.360842          3.81
     1.360430          0.95
     1.359366         15.04
     1.356750          1.25
     1.353371          4.99
     1.350471          0.01
     1.347035          1.64
     1.346009          2.74
     1.345830          0.89
     1.343891         49.07
     1.340869          0.00
     1.336030         10.42
     1.333413          0.25
     1.332537          8.15
     1.332144         29.03
     1.329394         15.13
     1.329343          6.48
     1.328956         49.05
     1.327409          0.48
     1.326593         20.23
     1.320355          0.02
     1.320208         19.74
     1.318464          7.25
     1.317121          8.71
     1.316921         48.02
     1.316088          0.61
     1.315994          0.79
     1.314296          1.74
     1.313797          0.10
     1.313394          0.29
     1.311870          0.52
     1.309209          0.72
     1.306296          8.88
     1.304766          7.15
     1.303189          2.12
     1.296937          6.77
     1.296904          4.37
     1.293276         23.89
     1.290745         13.12
     1.290217          0.09
     1.288128          0.48
     1.281694          4.86
     1.278890          0.01
     1.278402          5.35
     1.277371          0.07
     1.274715         46.98
     1.274177          4.30
     1.271918          3.70
     1.270142          6.67
     1.270023          0.20
     1.267774          0.02
     1.267027         14.61
     1.266585          2.02
     1.265690          0.27
     1.265652         47.51
     1.264274          4.13
     1.261909          6.35
     1.260587          2.18
     1.260231         27.47
     1.256918         16.05
     1.256536          2.59
     1.253180          2.11
     1.251202          0.49
     1.250853          7.12
     1.250423          1.71
     1.249277          0.09
     1.248924          1.41
     1.247881          0.12
     1.247782         14.45
     1.247347          0.20
     1.246920          1.41
     1.246917          2.66
     1.245933          0.44
     1.245642         37.19
     1.243554         17.11
     1.240761          2.88
     1.239191         25.54
     1.236584         10.88
     1.235314         11.48
     1.233299          0.03
     1.232373          1.33
     1.228969         41.98
     1.228664         41.81
     1.225550          1.13
     1.224835          4.60
     1.224337         27.62
     1.223077          4.00
     1.221873         50.07
     1.221839         32.71
     1.216093          0.48
     1.215651          6.62
     1.214573         31.45
     1.213320          1.75
     1.212513         10.76
     1.209162          3.70
     1.207711          0.01
     1.205017         14.72
     1.204070          0.50
     1.200303          1.08
     1.194503         11.17
     1.194478          2.80
     1.193504         23.13
     1.193029         16.22
     1.191886          5.05
     1.190772          0.01
     1.187610         16.28
     1.187355          0.14
     1.184672          0.18
     1.184157          4.32
     1.183338          5.55
     1.182852          1.53
     1.182488          8.34
     1.182194          1.16
     1.182019          7.48
     1.181000          2.64
     1.179232          4.40
     1.178873         10.81
     1.177074          6.92
     1.177009          2.81
     1.174271          0.01
     1.174070          0.46
     1.174002          0.53
     1.173376          0.12
     1.172375          8.07
     1.172242          2.50
     1.171083          5.00
     1.170126         13.27
     1.169994          0.01
     1.168063          1.29
     1.166758         18.17
     1.165910          4.15
     1.164664          0.25
     1.164607         18.51
     1.163667          5.24
     1.162757          0.01
     1.160324          6.75
     1.159575         18.17
     1.158214          1.27
     1.158016          9.42
     1.155848          4.20
     1.155411          3.16
     1.155082          0.71
     1.154068          0.09
     1.153992         10.04
     1.152367         11.41
     1.151251          0.69
     1.150997          0.90
     1.150357          9.74
     1.150120          5.57
     1.149668         14.45
     1.148919          3.61
     1.147143          1.38
     1.146854          1.91
     1.145573          0.65
     1.145002          8.12
     1.144735         33.46
     1.141672         10.25
     1.141040          5.97
     1.140771          0.23
     1.140527          1.46
     1.138845          3.56
     1.138736          3.86
     1.137923          0.08
     1.134126          2.84
     1.133340         10.32
     1.133020         24.05
     1.132302          0.53
     1.132167          4.34
     1.130083          0.00
     1.126894         15.95
     1.126168          0.78
     1.124291          0.66
     1.124115          9.22
     1.122701          2.05
     1.121265          0.05
     1.120492          2.54
     1.119443         12.09
     1.119270          0.06
     1.119135          2.23
     1.117734          1.02
     1.116915          1.39
     1.115589          0.16
     1.114417          7.02
     1.114415          3.19
     1.113537          0.08
     1.113504          0.06
     1.112116          0.28
     1.111917         11.71
     1.111871          0.07
     1.110231          1.26
     1.109782          0.26
     1.109204          4.06
     1.108638          1.78
     1.107292          0.56
     1.107020          0.23
     1.106128         23.99
     1.104543          1.16
     1.103362          5.20
     1.102993          0.85
     1.102698          5.19
     1.101813          3.62
     1.100953         13.74
     1.100648          1.48
     1.100367          9.30
     1.098851          0.27
     1.097342          1.01
     1.096417          9.55
     1.096362          0.01
     1.095333          1.89
     1.094969          1.66
     1.093244          0.04
     1.091781         20.65
     1.089289          2.04
     1.088961          4.12
     1.087971          8.30
     1.087216          0.04
     1.085781          0.03
     1.085400         15.19
     1.085261          0.01
     1.085237          1.02
     1.083348          5.74
     1.082882          1.81
     1.082177          0.91
     1.081519          0.15
     1.080895          0.15
     1.079681          9.85
     1.078975          0.06
     1.077595          9.84
     1.077136          3.32
     1.075443          3.61
     1.075222          1.34
     1.073986          4.05
     1.073766          0.11
     1.073139         10.72
     1.072677          0.00
     1.071477          1.69
     1.070970          0.24
     1.070668          7.96
     1.070247          4.70
     1.069773          5.40
     1.069423         14.02
     1.067513         16.49
     1.064900          0.73
     1.064699          8.60
     1.063494          0.05
     1.063293          0.03
     1.063053          0.78
     1.062856          8.61
     1.061760          6.63
     1.061646          1.03
     1.060594          0.31
     1.060173          0.14
     1.060142          0.99
     1.059044          0.00
     1.058576          8.29
     1.057739          5.09
     1.057386          0.97
     1.057048          0.13
     1.055376          7.70
     1.055058         12.92
     1.055053         15.82
     1.054527         12.38
     1.053268          7.69
     1.051427         27.48
     1.051302          2.27
     1.050745          1.41
     1.049742          0.95
     1.049585          4.15
     1.049205          2.78
     1.048502          2.03
     1.046924          3.54
     1.045807         10.16
     1.044540          1.00
     1.044350          1.15
     1.044337          0.85
     1.043549          0.02
##############################################################################
###                            Comments                                    ###
##############################################################################
###   Diffraction pattern calculated by Match!. 
###   I/Ic calculated by Match!. 
##############################################################################


