##############################################################################
###               Crystal structure data exported by Match!                ###
##############################################################################
###                           Data published by:                           ###
###                                                                        ###
###               COD (Crystallography Open Database)
##############################################################################
data_9015317
_citation_journal_full    'ur Naturforschung B''
_citation_journal_volume  '53(2)'
_citation_page_first  '131'
_citation_page_last   '134'
_citation_year  '1998'
_citation_title  'Kristallstruktur von MgSO~3~ * H~2~O'
loop_
_publ_author_name
  'Buchmeier W.'
  'Engelen B.'
  'M?ller H.'
_chemical_formula_sum  'Mg O4 S'
_chemical_name_common  'Magnesium sulfate'
_symmetry_space_group_name_H-M 'P 1 21/n 1'
_space_group_IT_number 14
_space_group_crystal_system 'monoclinic'
loop_
_symmetry_equiv_pos_as_xyz
   'x, y, z'
   '-x+0.5, y+0.5, -z+0.5'
   '-x, -y, -z'
   'x+0.5, -y+0.5, z+0.5'
_cell_length_a        4.69900
_cell_length_b       12.75100
_cell_length_c        5.61800
_cell_angle_alpha    90.0000
_cell_angle_beta     90.4900
_cell_angle_gamma    90.0000
_cell_formula_units_Z 4
loop_
_atom_site_label
_atom_site_fract_x
_atom_site_fract_y
_atom_site_fract_z
_atom_site_occupancy
_atom_site_B_iso_or_equiv
s      0.424   0.388   0.678    1.00000    1.000
mg      0.348   0.269   0.177    1.00000    1.000
o      0.559   0.326   0.470    1.00000    1.000
o      0.060   0.173   0.387    1.00000    1.000
o      0.616   0.141   0.176    1.00000    1.000
o      0.064   0.396   0.173    1.00000    1.000
_cell_measurement_wavelength    1.541874
_cell_measurement_radiation   'x-rays'
_exptl_crystal_density_diffrn    2.375000
loop_
_pd_peak_d_spacing
_pd_peak_intensity
     6.375500       1000.00
     5.140958         88.99
     4.408991        197.51
     4.214942        499.35
     3.782510        285.31
     3.619530         38.30
     3.589191         11.96
     3.481963         14.14
     3.454928         62.10
     3.389525         34.49
     3.187750        306.19
     3.152104        267.71
     3.147642         18.27
     3.127628        165.29
     2.808897        109.12
     2.772496          0.06
     2.755703        454.65
     2.743128        185.57
     2.742243        108.29
     2.637979          3.94
     2.570479          0.14
     2.392247         14.78
     2.383425        257.68
     2.377647         37.86
     2.360417         74.69
     2.349414         98.74
     2.343400         51.26
     2.322137         11.85
     2.310521          0.33
     2.262569        124.48
     2.247707         15.84
     2.241371         30.88
     2.204495          0.02
     2.143198          3.87
     2.130554         17.50
     2.125167          1.18
     2.107471         15.04
     2.103074         16.80
     2.091123        105.92
     2.084723         56.83
     2.078877          0.94
     2.057770         23.01
     2.056193         13.69
     2.046570          5.56
     1.987696         84.21
     1.936333          9.68
     1.935600         11.41
     1.927543         32.93
     1.926270          0.16
     1.918328          2.86
     1.891255         80.49
     1.888113          3.86
     1.852725          2.91
     1.832631         14.34
     1.828656          3.32
     1.809765         21.11
     1.796700          0.19
     1.796151          2.04
     1.794595         17.94
     1.791808         28.56
     1.788689         19.90
     1.777081         13.17
     1.755458          6.72
     1.748490          2.28
     1.744686          0.41
     1.740982          2.30
     1.734454          0.05
     1.732758         11.87
     1.728580          0.57
     1.727916         50.31
     1.727464         44.73
     1.718627          0.12
     1.713653          1.03
     1.698414          2.02
     1.694762         38.36
     1.682813         28.12
     1.673626         38.54
     1.665107         42.57
     1.654485         48.49
     1.653269          8.14
     1.648647         44.46
     1.627135          8.93
     1.624350         11.16
     1.614620          1.03
     1.614001         35.35
     1.605890         10.56
     1.596868          0.20
     1.593875         14.22
     1.591617          0.96
     1.576052          3.01
     1.573821          0.83
     1.563814         16.69
     1.554592          1.06
     1.533355         12.51
     1.530457         13.86
     1.528331         89.38
     1.523536         34.13
     1.521048         23.78
     1.519735          7.07
     1.515207          2.95
     1.512083          0.28
     1.509402         17.12
     1.509380         39.10
     1.505407         11.10
     1.501562         27.04
     1.495024         17.45
     1.475891          1.99
     1.471270          6.84
     1.469664          1.66
     1.467629          0.25
     1.465118          0.10
     1.460819          0.07
     1.458707          0.01
     1.456700          1.06
     1.455378          2.60
     1.451400          1.19
     1.448849          0.65
     1.439952         18.68
     1.439567         35.14
     1.434183         17.92
     1.432881         10.65
     1.424617          0.02
     1.421579          8.94
     1.419029          7.34
     1.405754         13.14
     1.404981          1.57
     1.404449          4.64
     1.396271          0.74
     1.396006         70.90
     1.392756          0.90
     1.389681          0.37
     1.386248         25.60
     1.379363          0.00
     1.377851          9.21
     1.373764          0.31
     1.371564          0.55
     1.371121          0.03
     1.366179         12.66
     1.365088         18.02
     1.361249          8.92
     1.356459          1.03
     1.355305         20.52
     1.348472         14.73
     1.343731          8.41
     1.342208         26.03
     1.341312          3.69
     1.335278          4.27
     1.335101          5.39
     1.334650          0.81
     1.333533          3.78
     1.332905         15.90
     1.331119          4.02
     1.328073         19.27
     1.326117          2.33
     1.319588          8.68
     1.319310          3.33
     1.318990          0.01
     1.317824          4.21
     1.313673          1.64
     1.306505         12.09
     1.305712         13.01
     1.300641          0.02
     1.297920         22.71
     1.296385          3.03
     1.285615          2.22
     1.285446          1.62
     1.285240          0.87
     1.283851          3.21
     1.282702          0.00
     1.280143          4.80
     1.278401         14.67
     1.275100          0.85
     1.273893          0.37
     1.265931          3.21
     1.264976          4.93
     1.260991          3.19
     1.260837         18.79
     1.259984          0.01
     1.256113          2.89
     1.253267          0.42
     1.243472          0.12
     1.242178          0.92
     1.237240          0.73
     1.232046          0.26
     1.230595         15.72
     1.230226          1.38
     1.228427          0.67
     1.222669         23.54
     1.220308          0.47
     1.213743          0.00
     1.213250          0.80
     1.210046          0.64
     1.209239          8.74
     1.208909          9.45
     1.206510          2.01
     1.204634          3.33
     1.202655          1.32
     1.202423          6.26
     1.202098          0.50
     1.201530          4.96
     1.201145          7.89
     1.200965          2.94
     1.196397          6.15
     1.196123          4.50
     1.195674          1.18
     1.192303          1.30
     1.191712          0.47
     1.191165          3.65
     1.188823          1.75
     1.187934          0.65
     1.187616          5.81
     1.186991          0.80
     1.185470          2.31
     1.184830          3.66
     1.180209          0.79
     1.176751          4.52
     1.175872          2.38
     1.174707          5.50
     1.173596          4.41
     1.171700          0.33
     1.169753          4.54
     1.163802          4.15
     1.163463          5.76
     1.161068          0.72
     1.160654          3.46
     1.160414          0.76
     1.155716          7.46
     1.155261          2.09
     1.153239          0.01
     1.151643          4.78
     1.147322         10.35
     1.147142          6.52
     1.144199          0.18
     1.143250          2.86
     1.138796          0.02
     1.138420          0.00
     1.135266          0.23
     1.134987          0.09
     1.133464          0.04
     1.132258          6.14
     1.131284          3.72
     1.129842          1.03
     1.129708          5.87
     1.128393          1.90
     1.128097          1.98
     1.126241         15.32
     1.125441          0.51
     1.123853          0.16
     1.120685          2.73
     1.120107          0.00
     1.119222          3.30
     1.117154          9.45
     1.115588          0.01
     1.112243         12.55
     1.112007          0.00
     1.111715          2.10
     1.108171          0.86
     1.106508          4.25
     1.103950          9.84
     1.103080          4.81
     1.102248          0.07
     1.099891          0.78
     1.099822          0.05
     1.098171          1.22
     1.097245          0.00
     1.096980          1.19
     1.096415          3.50
     1.094873          1.24
     1.094423          6.23
     1.093223          1.03
     1.091327          0.05
     1.090859          3.30
     1.090646          3.30
     1.090613          5.28
     1.087065          0.24
     1.086678          0.09
     1.086513          4.40
     1.086247          4.04
     1.083981          0.04
     1.083268          0.00
     1.083136          7.12
     1.083127          7.43
     1.080789          0.47
     1.080695          0.32
     1.080466          4.50
     1.079988          0.95
     1.079077          2.71
     1.076608          1.94
     1.075914          0.00
     1.075029          0.31
     1.071599          1.40
     1.071524          5.79
     1.066953          0.07
     1.065277          0.22
     1.062583          0.00
     1.060261          0.05
     1.059665          0.17
     1.056420         12.82
     1.053960          0.10
     1.053736          0.74
     1.053165          1.01
     1.051537          6.06
     1.050701          4.01
     1.049711          8.01
     1.049214          3.54
     1.047161          1.70
     1.046726          1.94
     1.046573          5.04
     1.045561          6.26
     1.045444          3.50
     1.044071          3.90
     1.043966          0.01
     1.042543          2.27
     1.042362          2.54
     1.040247          2.82
     1.039537          3.14
     1.039439          0.14
     1.037772          5.35
     1.036414          0.85
     1.036155          1.48
     1.035898          0.14
     1.035499         14.72
     1.033865          1.80
     1.031920          1.01
     1.031724          0.23
     1.029610          3.02
     1.029466          7.69
     1.028885          3.14
     1.028192          1.31
     1.028097          0.95
     1.027612          0.21
     1.027352          9.04
     1.026793          0.64
     1.023285          4.62
     1.022877          5.78
     1.021493          3.70
     1.020277          3.47
     1.019557          0.36
     1.019462          1.71
     1.018871          1.53
     1.016173          3.79
     1.013785          1.92
     1.012644          1.10
     1.011322          1.86
     1.009963          6.29
     1.007925          1.97
     1.007100          0.20
##############################################################################
###                            Comments                                    ###
##############################################################################
###   Diffraction pattern calculated by Match!. 
###   I/Ic calculated by Match!. 
##############################################################################


