##############################################################################
###               Crystal structure data exported by Match!                ###
##############################################################################
###                           Data published by:                           ###
###                                                                        ###
###               COD (Crystallography Open Database)
##############################################################################
data_4124041
_citation_journal_full    'Journal of the American Chemical Society'
_citation_journal_volume  '126'
_citation_page_first  '9769'
_citation_page_last   '9775'
_citation_year  '2004'
_citation_title  'Chemical evaluation of hypothetical uninodal zeolites'
loop_
_publ_author_name
  'Foster M.D.'
  'Paz F.A.A.'
  'Bell R.G.'
  'Friedrichs O.D.'
  'Klinowski J.'
_chemical_formula_sum  'O2 Si'
_chemical_name_common  'Silica'
_symmetry_space_group_name_H-M 'C 1 2/m 1'
_space_group_IT_number 12
_space_group_crystal_system 'monoclinic'
loop_
_symmetry_equiv_pos_as_xyz
   'x, y, z'
   'x+0.5, y+0.5, z'
   '-x, y, -z'
   '-x+0.5, y+0.5, -z'
   '-x, -y, -z'
   '-x+0.5, -y+0.5, -z'
   'x, -y, z'
   'x+0.5, -y+0.5, z'
_cell_length_a       12.04299
_cell_length_b       19.06932
_cell_length_c        4.18221
_cell_angle_alpha    90.0000
_cell_angle_beta     96.8449
_cell_angle_gamma    90.0000
_cell_formula_units_Z 24
loop_
_atom_site_label
_atom_site_fract_x
_atom_site_fract_y
_atom_site_fract_z
_atom_site_occupancy
_atom_site_B_iso_or_equiv
si      0.413   0.926   0.710    1.00000    1.000
o      0.143   0.500   0.171    1.00000    1.000
o      0.342   0.831   0.835    1.00000    1.000
o      0.819   0.392   0.411    1.00000    1.000
o      0.306   0.755   0.300    1.00000    1.000
si      0.383   0.754   0.646    1.00000    1.000
o      0.637   0.682   0.153    1.00000    1.000
o      0.500   0.957   0.500    1.00000    1.000
o      0.500   0.887   0.000    1.00000    1.000
si      0.225   0.335   0.841    1.00000    1.000
o      0.500   0.765   0.500    1.00000    1.000
_cell_measurement_wavelength    1.541874
_cell_measurement_radiation   'x-rays'
_exptl_crystal_density_diffrn    2.511000
loop_
_pd_peak_d_spacing
_pd_peak_intensity
    10.130364       1000.00
     9.534660        420.87
     5.978576         25.60
     5.612655          0.00
     5.065182         81.90
     4.767330          2.76
     4.152401          4.96
     3.985996          2.55
     3.901410         10.35
     3.807035          0.34
     3.727378          8.40
     3.712843          4.49
     3.633511         11.22
     3.618535         20.26
     3.431187         24.48
     3.383093          0.65
     3.376788          7.28
     3.252288         31.96
     3.234649         67.45
     3.178220          6.76
     3.131181         27.06
     3.063176          3.32
     3.024853         30.01
     2.989288          8.58
     2.882290          0.04
     2.852388          2.61
     2.806327         29.86
     2.784884          2.81
     2.759814          7.22
     2.755561          0.00
     2.690958         18.68
     2.686648          0.32
     2.676679         12.16
     2.656126          5.92
     2.575967         17.38
     2.532591          7.83
     2.523807         61.34
     2.499239          0.01
     2.486808          3.17
     2.388463         12.71
     2.387925          7.16
     2.383665          0.29
     2.372844          1.96
     2.299558          5.66
     2.267028          1.11
     2.266288          1.16
     2.264908          0.70
     2.249050          3.32
     2.238266         13.19
     2.235462          0.23
     2.214168          0.06
     2.213510          2.52
     2.211109         10.84
     2.177476          3.69
     2.173913          0.01
     2.086311          0.25
     2.076200          5.25
     2.075562          0.60
     2.071196          0.72
     2.069015          0.23
     2.067267          6.85
     2.038018          3.09
     2.035770          2.21
     2.028662          1.26
     2.026073          1.59
     2.001196         21.91
     1.994694          0.06
     1.992998          0.74
     1.992859          0.74
     1.990584          0.04
     1.983688          1.57
     1.962641          0.16
     1.950705          0.73
     1.928506          1.00
     1.924157          0.46
     1.918916          8.47
     1.912736          3.45
     1.906932          3.96
     1.903517          0.37
     1.897976          1.86
     1.892642          1.84
     1.886502         14.56
     1.884420          3.90
     1.879984          0.42
     1.873962          0.54
     1.870885          0.00
     1.863689          0.03
     1.863041          2.39
     1.856422          4.17
     1.854144          1.18
     1.850626          7.95
     1.848874          0.25
     1.838675          0.11
     1.831465          0.52
     1.816755          0.21
     1.809267          0.04
     1.797194          3.49
     1.777548          0.17
     1.775185          1.80
     1.759087          4.00
     1.754153          1.72
     1.752479          2.36
     1.750111          1.41
     1.749544          1.74
     1.742649          0.13
     1.738184          0.01
     1.732932          1.43
     1.728048          2.43
     1.718537          8.00
     1.715637          0.15
     1.715594          9.67
     1.705980          1.88
     1.701352          0.53
     1.693969          0.31
     1.691546          0.12
     1.691285          4.66
     1.688394          0.73
     1.687010          1.09
     1.671092          6.70
     1.663009          0.09
     1.657194          0.84
     1.654969          0.77
     1.649638          2.20
     1.644297          0.34
     1.642718          3.46
     1.626144          2.95
     1.622244          0.04
     1.617325          7.30
     1.616702          0.65
     1.615151          0.12
     1.614615          1.81
     1.607670          0.02
     1.597992          2.85
     1.597474          0.05
     1.596196          0.09
     1.595285          0.17
     1.594547          0.04
     1.589714          0.67
     1.589110         11.32
     1.585892          0.00
     1.579405          2.63
     1.576144          0.70
     1.572344          0.07
     1.565590          1.08
     1.558945          0.05
     1.549023          0.00
     1.535784          2.59
     1.532668          1.89
     1.531821          1.76
     1.531588          0.50
     1.529286          1.33
     1.528913          2.26
     1.522159          0.08
     1.514697          0.02
     1.512596          0.21
     1.512427          0.02
     1.511693          0.00
     1.508774          0.71
     1.494644          0.97
     1.487202          5.34
     1.484141          0.05
     1.482230          1.40
     1.479275          0.74
     1.478279          5.15
     1.476848          2.03
     1.476611          1.35
     1.475908          1.58
     1.467882          0.12
     1.462974          0.26
     1.461615          0.00
     1.458385          0.72
     1.456590          0.58
     1.455956          2.07
     1.454987          0.92
     1.447195          0.37
     1.446051          0.29
     1.443976          0.00
     1.443968          1.37
     1.441424          4.87
     1.441145          0.18
     1.430210          0.74
     1.426285          6.46
     1.426194          1.20
     1.423375          3.36
     1.411589          1.49
     1.409888          3.06
     1.404439          0.66
     1.403579          0.00
     1.403164          2.10
     1.399943          4.45
     1.398601          2.90
     1.394014          0.11
     1.392442          0.59
     1.390351          0.23
     1.385232          0.28
     1.384134          0.04
     1.381974          1.05
     1.380214          0.20
     1.379907         14.69
     1.377780          0.49
     1.376602          1.32
     1.370840          1.39
     1.370705          1.78
     1.369776          0.00
     1.367762          0.70
     1.362094          2.10
     1.361698          0.01
     1.359079          0.99
     1.358819          0.25
     1.355768          0.01
     1.355243          0.04
     1.353188          0.99
     1.352726          0.41
     1.352544          0.21
     1.352464          3.36
     1.345479          1.24
     1.343324          4.20
     1.342266          1.85
     1.341123          1.79
     1.338339          0.13
     1.333777          0.60
     1.330215          0.07
     1.329828          2.33
     1.329242          1.03
     1.328941          8.79
     1.328665          0.47
     1.328063          0.95
     1.326728          0.17
     1.325612          0.94
     1.325360          0.31
     1.323037          0.99
     1.317336          0.14
     1.317310          1.22
     1.314481          0.94
     1.312514          0.10
     1.311562          0.14
     1.311275          0.68
     1.309334          0.03
     1.308473          0.16
     1.307323          0.13
     1.307005          2.63
     1.304915          0.46
     1.304059          0.81
     1.302330          0.15
     1.302324          0.29
     1.302165          0.71
     1.302043          0.02
     1.300470          0.24
     1.294242          0.09
     1.292204          0.01
     1.290893          5.35
     1.288666          1.24
     1.287984          3.52
     1.284505          0.14
     1.279887          0.10
     1.278156          1.28
     1.276613          0.51
     1.276391          0.17
     1.274772          0.02
     1.269858          1.65
     1.269728          1.06
     1.269012         10.48
     1.267194          3.66
     1.266295          0.13
     1.264163          0.15
     1.262325          0.91
     1.261903          3.81
     1.259009          0.50
     1.255335          0.08
     1.254627          0.10
     1.253179          0.26
     1.250387          1.00
     1.249620          1.37
     1.247814          0.74
     1.247044          2.51
     1.246863          0.11
     1.245466          0.00
     1.243404          0.03
     1.242459          0.92
     1.241007          0.28
     1.240764          0.26
     1.240274          0.00
     1.239485          0.00
     1.237614          0.02
     1.234204          0.29
     1.233655          1.45
     1.233441          0.01
     1.224744          0.21
     1.221246          0.48
     1.218428          0.01
     1.217014          0.64
     1.216921          2.07
     1.216739          0.74
     1.215848          2.20
     1.215377          1.97
     1.214824          0.06
     1.214690          0.46
     1.214363          0.66
     1.213628          1.30
     1.211170          0.46
     1.206178          0.70
     1.205137          0.53
     1.204122          0.06
##############################################################################
###                            Comments                                    ###
##############################################################################
###   Diffraction pattern calculated by Match!. 
###   I/Ic calculated by Match!. 
###   Space group has been derived from given symmetry operations. 
##############################################################################


