##############################################################################
###               Crystal structure data exported by Match!                ###
##############################################################################
###                           Data published by:                           ###
###                                                                        ###
###               COD (Crystallography Open Database)
##############################################################################
data_9004404
_citation_journal_full    'The Canadian Mineralogist'
_citation_journal_volume  '34'
_citation_page_first  '73'
_citation_page_last   '78'
_citation_year  '1996'
_citation_title  'The crystal structure of clinoatacamite, a new polymorph of Cu2(OH)3Cl'
loop_
_publ_author_name
  'Grice J. D.'
  'Szymanski J. T.'
  'Jambor J. L.'
_chemical_formula_sum  'Cl Cu2 O3'
_chemical_name_mineral  'Clinoatacamite'
_symmetry_space_group_name_H-M 'P 1 21/n 1'
_space_group_IT_number 14
_space_group_crystal_system 'monoclinic'
loop_
_symmetry_equiv_pos_as_xyz
   'x, y, z'
   '-x+0.5, y+0.5, -z+0.5'
   '-x, -y, -z'
   'x+0.5, -y+0.5, z+0.5'
_cell_length_a        6.14400
_cell_length_b        6.80500
_cell_length_c        9.11200
_cell_angle_alpha    90.0000
_cell_angle_beta     99.5500
_cell_angle_gamma    90.0000
loop_
_atom_site_label
_atom_site_fract_x
_atom_site_fract_y
_atom_site_fract_z
_atom_site_occupancy
_atom_site_B_iso_or_equiv
cu      0.000   0.500   0.500    1.00000    1.136
cu      0.000   0.000   0.000    1.00000    1.326
cu      0.259   0.238   0.749    1.00000    1.223
o      0.300   0.296   0.547    1.00000    1.737
o      0.419   -0.014   0.773    1.00000    1.737
o      0.260   0.679   0.537    1.00000    1.500
cl      0.112   -0.004   0.307    1.00000    1.476
_cell_measurement_wavelength    1.541874
_cell_measurement_radiation   'x-rays'
_exptl_crystal_density_diffrn    3.722000
loop_
_pd_peak_d_spacing
_pd_peak_intensity
     5.461059        494.51
     5.424899       1000.00
     4.676756        233.71
     4.525151         29.96
     4.492859         14.41
     4.259157          1.32
     3.854288          0.59
     3.749388          1.68
     3.406297         52.59
     3.402500         26.72
     3.182019          4.27
     3.029426          5.48
     3.007405         15.33
     2.966707          6.06
     2.887845        205.06
     2.881699        114.36
     2.767572          7.48
     2.765502        380.90
     2.751382        379.74
     2.741433        357.48
     2.730529         91.54
     2.712449        182.58
     2.653578          0.24
     2.573687          0.67
     2.538921          4.17
     2.534136          0.14
     2.523856          1.34
     2.388083          0.13
     2.366348          0.43
     2.338378        165.21
     2.262575        555.67
     2.261444          3.93
     2.248226          0.92
     2.246430        271.65
     2.211457          0.00
     2.206190         18.01
     2.199339         19.27
     2.199001         16.68
     2.133201          0.05
     2.132416          1.41
     2.129579          0.73
     2.124337          1.20
     2.119445          1.18
     2.094813          3.71
     2.044363         40.47
     2.040939          0.15
     2.027069         86.26
     2.024895          0.07
     1.967359          0.70
     1.965164          2.95
     1.957918          1.00
     1.936148          5.19
     1.927144          4.13
     1.923656          0.22
     1.919625          5.70
     1.904033         47.05
     1.894597         89.43
     1.890725          1.09
     1.889961          1.24
     1.878714          0.70
     1.874694          0.53
     1.865337          1.17
     1.833611          2.80
     1.820353         26.18
     1.815741          1.49
     1.815156        153.18
     1.808300         47.40
     1.806600         81.06
     1.782387          0.20
     1.758522          0.90
     1.752376         14.05
     1.746373         17.07
     1.746115          0.25
     1.744814          0.63
     1.737572         17.54
     1.736716          2.95
     1.724761          1.46
     1.706539          1.13
     1.703707          0.74
     1.703149        233.67
     1.701250        114.19
     1.687081          0.21
     1.683421          4.56
     1.676286          1.59
     1.671555          2.84
     1.661565         33.82
     1.649935         15.68
     1.637907          3.90
     1.628154          0.00
     1.627631          0.23
     1.626048         26.88
     1.624260         22.32
     1.623852         24.21
     1.605079         11.98
     1.603477          0.25
     1.598756         10.28
     1.597632          7.33
     1.596153          0.26
     1.595627         10.34
     1.591009          5.19
     1.590366          7.01
     1.589100          0.56
     1.561540          2.44
     1.558919          2.46
     1.547362          0.10
     1.519556          0.01
     1.518610          1.07
     1.517099          1.71
     1.514713         29.08
     1.513356          5.24
     1.508384          0.40
     1.503703         58.67
     1.500721          0.56
     1.500531         10.38
     1.498301         46.28
     1.497620          0.16
     1.488486         42.61
     1.486606          0.20
     1.486235          0.48
     1.484594         46.78
     1.483354          0.71
     1.483035          2.38
     1.479952          0.69
     1.479288          2.06
     1.478528          2.26
     1.477433          0.46
     1.477266          0.14
     1.469049         13.28
     1.465001         26.78
     1.462619          0.12
     1.458360          0.48
     1.444806          0.47
     1.443923         37.55
     1.440850         20.04
     1.435969          1.13
     1.422473         13.26
     1.420227          4.84
     1.419719          0.18
     1.417247         13.17
     1.413166          0.37
     1.412620         14.03
     1.410688          3.51
     1.409599          0.28
     1.408626          5.02
     1.399956          0.71
     1.383786          5.76
     1.382888          0.18
     1.382751         59.48
     1.379309          7.84
     1.375691         57.89
     1.374421          0.92
     1.371973          6.94
     1.370717         60.17
     1.368259          2.19
     1.365265         31.95
     1.363282          5.49
     1.356225         58.99
     1.352669          1.27
     1.348709         15.90
     1.348117          0.28
     1.345967         15.60
     1.345652         16.35
     1.341413          0.31
     1.338591          1.56
     1.337508          0.11
     1.335641          0.05
     1.334296          0.05
     1.330922          0.69
     1.329307          0.71
     1.327910          0.72
     1.326789          0.38
     1.320606          0.06
     1.307687         15.16
     1.306789          0.33
     1.302548          0.19
     1.301140          0.73
     1.300303          8.36
     1.296090          1.68
     1.295270          0.08
     1.288304          0.54
     1.287949          0.73
     1.287870          2.70
     1.287085          0.26
     1.286844          2.37
     1.286229          2.04
     1.284763          0.08
     1.277196          0.22
     1.271839         14.55
     1.269461         53.89
     1.268622         12.45
     1.267068          0.52
     1.261928         26.04
     1.261427         11.46
     1.261050          0.69
     1.259679          0.68
     1.259001          0.46
     1.258898          0.20
     1.249796          0.03
     1.248005          6.33
     1.244976         20.51
     1.243978          3.07
     1.242940         13.16
     1.241469          0.12
     1.241282         14.28
     1.240774          0.07
     1.239082         20.89
     1.238535         20.64
     1.238354         13.18
     1.235476          0.99
     1.233046          0.59
     1.230650          0.12
     1.228191          3.17
     1.224469          3.50
     1.223799          0.25
     1.223699          0.58
     1.223036          0.09
     1.218606          0.19
     1.218168          7.36
     1.218075          0.11
     1.216229          0.62
     1.215572          1.81
     1.215553          0.06
     1.214628          0.12
     1.208663          0.28
     1.202808          0.79
     1.201041          0.02
     1.197925          0.02
     1.196630          0.08
     1.194322          1.73
     1.194041          0.42
     1.193003          0.57
     1.192547          0.97
     1.191813          0.71
     1.189438          0.06
     1.186815          0.49
     1.186102          0.73
     1.184406          2.93
     1.183174          0.28
     1.182045          0.22
     1.181075          0.04
     1.176343          0.76
     1.176271          0.00
     1.175477          0.98
     1.175350          8.83
     1.175219          0.53
     1.171615          0.03
     1.169733          0.56
     1.169189          9.75
     1.168341         16.87
     1.166077          0.00
     1.164033          0.01
     1.161782          0.00
     1.158202          1.29
     1.158076          0.20
     1.155233          3.29
     1.152305          0.16
     1.150117          0.01
     1.149352          3.43
     1.149325          0.25
     1.144713          4.07
     1.141537          0.39
     1.140072          0.96
     1.135432          3.83
     1.134167          2.28
     1.133092          0.12
     1.132908          0.39
     1.131288         11.26
     1.130797          0.43
     1.130722          1.04
     1.128644          0.75
     1.128097          0.10
     1.126915          9.53
     1.125343          0.14
     1.125239          0.82
     1.124113          0.20
     1.123215          5.76
     1.123160          0.87
     1.120235          9.47
     1.119433          0.27
     1.119274          0.00
     1.117187          8.10
     1.115191          0.00
     1.114803          0.39
     1.111879          4.94
     1.110936          2.85
     1.110824          5.35
     1.110471          4.74
     1.108990          0.25
     1.108220          0.09
     1.107830          3.70
     1.107223          0.00
     1.105728          0.08
     1.105710          9.10
     1.105577          0.30
     1.104522          0.08
     1.103095         12.73
     1.102764          0.01
     1.102753          0.27
     1.102470          2.72
     1.102218          8.00
     1.101064          9.55
     1.100933          0.25
     1.100511          0.13
     1.099670         12.59
     1.099501         13.39
     1.092212          0.84
     1.090724          0.19
     1.090025          0.03
     1.089797          0.99
     1.088719          0.10
     1.087050          0.05
     1.084980          2.16
     1.081362          0.19
     1.080036          0.17
     1.079900          0.10
     1.078410          0.69
     1.077091          0.78
     1.075852          0.13
     1.074354          0.64
     1.071425          0.03
     1.071412          0.20
     1.068819          1.00
     1.067287          0.00
     1.066601          0.35
     1.066208          1.15
     1.064789         17.09
     1.063646          4.33
     1.062168         16.16
     1.062051          1.02
     1.061724          0.02
     1.061472          0.05
     1.060673          0.94
     1.060615          7.90
     1.059861          1.17
     1.059723         16.37
     1.057827          3.60
     1.056789          0.14
     1.056594          0.11
     1.055558          3.16
     1.055369          2.44
     1.050887          0.01
     1.049900          0.01
     1.048255          1.70
     1.047743          0.66
     1.047406          0.98
     1.046490          1.58
     1.043577          0.28
     1.043485          0.14
     1.039946          9.41
     1.039257          0.07
     1.038722          0.35
     1.037070          0.35
     1.034511          9.08
     1.033097          9.66
     1.025252          0.09
     1.025097          0.00
     1.024698          0.41
     1.023960          0.20
     1.023282          0.16
     1.022181         11.11
     1.021451          0.06
     1.020469          0.06
     1.019950          0.52
     1.018648          9.67
     1.017725          0.00
     1.017641          0.40
     1.017464          0.37
     1.015821          0.35
     1.015198          0.09
     1.013535         21.01
     1.012447          0.53
     1.012444          5.67
     1.012368          0.30
     1.012214          0.37
     1.012016          0.33
     1.011963          0.20
     1.011232          0.05
     1.011144          1.50
     1.010966          0.48
     1.010841          0.13
     1.010143          0.10
     1.009809          0.38
     1.007217          0.27
     1.007147          0.07
     1.006570          0.00
##############################################################################
###                            Comments                                    ###
##############################################################################
###   Diffraction pattern calculated by Match!. 
###   I/Ic calculated by Match!. 
##############################################################################


