##############################################################################
###               Crystal structure data exported by Match!                ###
##############################################################################
###                           Data published by:                           ###
###                                                                        ###
###               COD (Crystallography Open Database)
##############################################################################
data_9010058
_citation_journal_full    'American Mineralogist'
_citation_journal_volume  '90'
_citation_page_first  '1563'
_citation_page_last   '1570'
_citation_year  '2005'
_citation_title  'Light-induced degradation dynamics in realgar: in situ structuralinvestigation using single crystal X-ray diffraction and X-ray photoelectronspectroscopy Sample: Getchell mine, Nevada'
loop_
_publ_author_name
  'Kyono A.'
  'Kimata M.'
  'Hatta T.'
_chemical_formula_sum  'As S'
_chemical_name_mineral  'Realgar'
_symmetry_space_group_name_H-M 'P 1 21/n 1'
_space_group_IT_number 14
_space_group_crystal_system 'monoclinic'
loop_
_symmetry_equiv_pos_as_xyz
   'x, y, z'
   '-x+0.5, y+0.5, -z+0.5'
   '-x, -y, -z'
   'x+0.5, -y+0.5, z+0.5'
_cell_length_a        9.38500
_cell_length_b       13.57000
_cell_length_c        6.60000
_cell_angle_alpha    90.0000
_cell_angle_beta    105.3600
_cell_angle_gamma    90.0000
loop_
_atom_site_label
_atom_site_fract_x
_atom_site_fract_y
_atom_site_fract_z
_atom_site_occupancy
_atom_site_B_iso_or_equiv
as      0.125   -0.021   0.762    1.00000    6.000
as      0.425   0.139   0.850    1.00000    5.313
as      0.321   0.128   0.171    1.00000    4.800
as      0.038   0.159   0.715    1.00000    6.277
s      0.346   -0.007   0.704    1.00000    5.369
s      0.213   -0.025   0.113    1.00000    6.885
s      0.242   0.226   0.644    1.00000    5.574
s      0.108   0.212   0.034    1.00000    6.261
_cell_measurement_wavelength    1.541874
_cell_measurement_radiation   'x-rays'
_exptl_crystal_density_diffrn    3.507000
loop_
_pd_peak_d_spacing
_pd_peak_intensity
     7.529071         73.71
     6.785000         58.20
     6.008284        475.14
     5.762028        469.06
     5.493864        298.00
     5.428671       1000.00
     4.657592         33.98
     4.641827        125.89
     4.524887          1.31
     4.498154         17.32
     4.405330          0.11
     4.292537         53.56
     4.063417        214.20
     4.046070         31.36
     3.839925         34.87
     3.764535         69.62
     3.686959         53.15
     3.613718          4.66
     3.607127         96.08
     3.392500          6.39
     3.244906         22.34
     3.204917         22.61
     3.199029        279.20
     3.194368         15.89
     3.182126        382.82
     3.176631        231.12
     3.100743         11.22
     3.098086         55.38
     3.057275        284.61
     3.004142          0.01
     2.993727        180.69
     2.982518         55.87
     2.966323        489.84
     2.957953        176.73
     2.954118          0.85
     2.944710         12.61
     2.933126        162.48
     2.881014         80.48
     2.787376         81.15
     2.756440        102.98
     2.746932          6.30
     2.742191        377.55
     2.723740        115.32
     2.714335         89.44
     2.665000          1.89
     2.658926          4.20
     2.653519         47.48
     2.602623         12.97
     2.599614        124.18
     2.572702          5.81
     2.532973         17.88
     2.509690        121.24
     2.508714         89.72
     2.502508         10.73
     2.496478          2.23
     2.483174         80.46
     2.473370        120.03
     2.442614         38.63
     2.389215         89.75
     2.368648          0.23
     2.364823         11.80
     2.360576         45.74
     2.344937          0.02
     2.331910         19.56
     2.328796          7.58
     2.327447          8.74
     2.320913          5.79
     2.302100          0.18
     2.295242          1.24
     2.288764          0.03
     2.271114          0.74
     2.262443         14.92
     2.261667         96.77
     2.254287         32.98
     2.249077          2.19
     2.231640         16.43
     2.223131         96.07
     2.208724         18.39
     2.202665         18.14
     2.198903        112.95
     2.194183         76.10
     2.176742          1.06
     2.170590         38.00
     2.150408          1.03
     2.146268         38.66
     2.131100          5.17
     2.129417         71.84
     2.125809         65.68
     2.116671         30.73
     2.103674         25.84
     2.095960         21.09
     2.095699          1.85
     2.092741          0.78
     2.091795          0.46
     2.075532          0.76
     2.070502          2.10
     2.064957          0.01
     2.051627         40.51
     2.039763         12.04
     2.034489          3.17
     2.031708         34.23
     2.029648          3.40
     2.024756          0.02
     2.023452          2.54
     2.023035         16.92
     2.017610         16.12
     2.013873          0.46
     2.003755         39.72
     2.002761          9.28
     1.997476          6.71
     1.981299         11.15
     1.977612         19.44
     1.953637          3.31
     1.952633          3.77
     1.943567          1.94
     1.942112         14.34
     1.933701          5.91
     1.927115          3.92
     1.926607          0.14
     1.923971          1.63
     1.920829          4.40
     1.920676          5.40
     1.919962          8.19
     1.895568          5.56
     1.894675         12.21
     1.882268          6.03
     1.877364         60.02
     1.876616         13.20
     1.871336         11.44
     1.865254         86.80
     1.863168         34.40
     1.859447          1.98
     1.858925         16.29
     1.854449          6.66
     1.845201          6.33
     1.844918          2.21
     1.843480         48.34
     1.832048          0.74
     1.831288          3.71
     1.818226         59.78
     1.817454          0.39
     1.809557         12.18
     1.808709         67.66
     1.808581         40.97
     1.806859          2.87
     1.803563         13.22
     1.798695         16.38
     1.794067          1.59
     1.793506         18.67
     1.789736          2.55
     1.788514          6.62
     1.788248          7.91
     1.781923          0.30
     1.774819          0.17
     1.770471         25.69
     1.767346          9.32
     1.764383          7.42
     1.754491         10.50
     1.748802         10.93
     1.743657          0.82
     1.737812          2.02
     1.736409          6.83
     1.733362         14.46
     1.730960          2.72
     1.724653         23.90
     1.708515         67.08
     1.705646          0.43
     1.696250         28.85
     1.695272         58.89
     1.692984         66.28
     1.692830         42.43
     1.688559          1.18
     1.686418          1.90
     1.680421          2.19
     1.675855         23.79
     1.675302         12.50
     1.672077         16.40
     1.671398         21.48
     1.671266          0.04
     1.669765          1.96
     1.667216          6.93
     1.664573         17.98
     1.655549          2.28
     1.649111          6.72
     1.643364         11.15
     1.642120         39.09
     1.639033          0.84
     1.637186         11.38
     1.637067          0.08
     1.632762          0.78
     1.632441          3.11
     1.631445          2.90
     1.631094          5.22
     1.630959          2.71
     1.630848         10.20
     1.628872          7.75
     1.624870         13.66
     1.622453          6.49
     1.619305         23.46
     1.611492          0.28
     1.602458         27.50
     1.602337          0.44
     1.599514          2.89
     1.597184          0.63
     1.596897          2.60
     1.596854          0.01
     1.595954          7.66
     1.593841          1.34
     1.592978          6.61
     1.591282          3.38
     1.591063          0.00
     1.590194          2.88
     1.588316          3.13
     1.585788         10.33
     1.585566          0.17
     1.583278          0.67
     1.581930          0.01
     1.581196          0.10
     1.580238          3.50
     1.576581         15.33
     1.575856          0.73
     1.559441          2.57
     1.559168          8.78
     1.555830          4.67
     1.553237          0.05
     1.552531          3.16
     1.550371         11.09
     1.549945          5.74
     1.549355          2.45
     1.549043          2.89
     1.547276          2.32
     1.544586          0.09
     1.544288          1.14
     1.543852         10.92
     1.543553          5.28
     1.542468          0.07
     1.534272          3.36
     1.528637          0.01
     1.528062          9.22
     1.523584         25.96
     1.519030         13.11
     1.513417          1.21
     1.510372          0.57
     1.508450         22.33
     1.508296          0.06
     1.507346          1.80
     1.505814          0.17
     1.502526          0.02
     1.502071         23.47
     1.501740          3.16
     1.500919          1.55
     1.499385          8.64
     1.499064          0.03
     1.496864         10.45
     1.494379          2.80
     1.492953          9.70
     1.491781          2.69
     1.491609         14.92
     1.491259          0.07
     1.489910          5.95
     1.487277          2.29
     1.486845          1.50
     1.483250          2.44
     1.483161         34.08
     1.478976          3.66
     1.478715          0.60
     1.478532          3.05
     1.478435          0.42
     1.477726         15.24
     1.477059          0.03
     1.475485          0.00
     1.472355          3.18
     1.472087          0.16
     1.471234          3.67
     1.469914         22.19
     1.468443          0.19
     1.467165          0.96
     1.466563          3.12
     1.465289          7.43
     1.462432          0.32
     1.454151          2.83
     1.448858          8.86
     1.448177          6.73
     1.448036          3.12
     1.444199          0.21
     1.441233          8.42
     1.440507          5.98
     1.440454          5.52
     1.434485          1.53
     1.433509          0.11
     1.431061         11.08
     1.430846          0.01
     1.430453         17.47
     1.425528          0.66
     1.424358          7.14
     1.421331          0.11
     1.419965          1.32
     1.413148          0.70
     1.412784          3.43
     1.412203          4.46
     1.411907          0.02
     1.411724          0.38
     1.410429          0.00
     1.409334          1.11
     1.405742          5.95
     1.405518          1.45
     1.403684          7.01
     1.400653          5.87
     1.397954          0.85
     1.393688          0.37
     1.392917          0.80
     1.390161          0.00
     1.389806         12.74
     1.389523          2.10
     1.384450          1.16
     1.384423          0.63
     1.382923          5.70
     1.382846          0.22
     1.380292          0.70
     1.379804          0.03
     1.378220          0.18
     1.376073          1.13
     1.373694          0.09
     1.373466          0.26
     1.373213          0.00
     1.372585          1.13
     1.372553          0.89
     1.372420          0.25
     1.371282          0.25
     1.371096          1.65
     1.370453          9.97
     1.369254          0.00
     1.363302          0.82
     1.362560          0.30
     1.361870          1.94
     1.359357          1.61
     1.357168          2.23
     1.357000          0.82
     1.354780          0.14
     1.354734          0.59
     1.354472          1.25
     1.352268          0.06
     1.348810          1.29
     1.348690          0.03
     1.348339          0.24
     1.347616          0.04
     1.347572          6.08
     1.343074          2.15
     1.341997          0.76
     1.337974          2.46
     1.332500          0.12
     1.332260          0.23
     1.331901          5.36
     1.331518          0.25
     1.330152          0.41
     1.329463          0.07
     1.329273          0.03
     1.328822          0.57
     1.327166          4.39
     1.326760         12.99
     1.326487          6.35
     1.325423          0.00
     1.324818          0.96
     1.323660          1.22
     1.322965          0.11
     1.322869          0.24
     1.320734          2.38
     1.320236          0.50
     1.318381          0.02
     1.316681          0.00
     1.315190          0.46
     1.314218          2.59
     1.313610          2.72
     1.313301          0.03
     1.312695          0.13
     1.309814          0.23
     1.309577          0.14
     1.309180          1.15
     1.307458          0.03
     1.303129          1.41
     1.302830          1.55
     1.301881          0.81
     1.301846          1.84
     1.301311          1.29
     1.299807          1.88
     1.299330          0.06
     1.298230          0.60
     1.296867          0.85
     1.295527          4.00
     1.294382          0.57
     1.292952          0.66
     1.288798          1.07
     1.287557          0.05
     1.286997          0.52
     1.286351          0.11
     1.286289          3.34
     1.286108          2.21
     1.285469          0.78
     1.284233          0.02
     1.283023          0.46
     1.280832          0.32
     1.279975          0.17
     1.279457          0.53
     1.278913          0.07
     1.276358          0.01
     1.275328          0.32
     1.272920          1.23
     1.270749          4.75
     1.269976          3.77
     1.269259          0.65
     1.267288          0.10
     1.266978          0.89
     1.266806          0.62
     1.266486          0.30
     1.265660          0.14
     1.262546          1.18
     1.258377          0.07
     1.258129          1.15
     1.257919          0.06
     1.257566          0.40
     1.257117          0.45
     1.256099          0.06
     1.255842          4.73
     1.254934          0.72
     1.254845          0.12
     1.254679          0.07
     1.254357          0.00
     1.254298          0.01
     1.253554          0.09
     1.253394          0.59
     1.252923          4.85
     1.251936          0.20
     1.251254          2.55
     1.251027          0.12
     1.250463          0.34
     1.248239          0.61
     1.248022          0.08
     1.244670          0.34
     1.243519          1.08
     1.243050          0.78
     1.241587          1.55
     1.241240          0.57
     1.240311          0.74
     1.240012          0.50
     1.238365          3.19
     1.237676          2.74
     1.237549          0.33
     1.237292          2.88
     1.236685          0.00
     1.236422          0.02
     1.235849          0.81
     1.235441          0.03
     1.235407          0.78
     1.235056          0.38
     1.234921          0.13
     1.231303          0.50
     1.230536          0.33
     1.230323          0.00
     1.230006          0.01
     1.229871          0.00
     1.228986          0.19
     1.228391          4.27
     1.227473          0.34
     1.227045          0.00
     1.225882          0.27
     1.225264          0.06
     1.222332          1.19
     1.221389          2.21
     1.221307          0.32
     1.220911          0.36
     1.219500          0.12
     1.218259          2.36
     1.217013          0.20
     1.216775          0.00
     1.216228          6.13
     1.216064          0.03
     1.214910          5.48
     1.211913          0.01
     1.211812          1.95
     1.211094          1.23
     1.208427          0.61
     1.208076          0.01
     1.206351          0.87
     1.206152          0.05
     1.204573          3.06
     1.202559          0.06
     1.202376          0.71
     1.201657          0.07
     1.201416          0.08
     1.200347          0.86
     1.200067          1.61
     1.198219          0.20
     1.198042          1.94
     1.197669          3.48
     1.197302          1.98
     1.196973          2.31
     1.194608          0.13
     1.193629          1.17
     1.193369          0.00
##############################################################################
###                            Comments                                    ###
##############################################################################
###   Diffraction pattern calculated by Match!. 
###   I/Ic calculated by Match!. 
##############################################################################


