##############################################################################
###               Crystal structure data exported by Match!                ###
##############################################################################
###                           Data published by:                           ###
###                                                                        ###
###               COD (Crystallography Open Database)
##############################################################################
data_4124072
_citation_journal_full    'Journal of the American Chemical Society'
_citation_journal_volume  '126'
_citation_page_first  '9769'
_citation_page_last   '9775'
_citation_year  '2004'
_citation_title  'Chemical evaluation of hypothetical uninodal zeolites'
loop_
_publ_author_name
  'Foster M.D.'
  'Friedrichs O.D.'
  'Bell R.G.'
  'Paz F.A.A.'
  'Klinowski J.'
_chemical_formula_sum  'O2 Si'
_chemical_name_common  'Silica'
_symmetry_space_group_name_H-M 'R -3 c'
_space_group_IT_number 167
_space_group_crystal_system 'trigonal (hexagonal axes)'
loop_
_symmetry_equiv_pos_as_xyz
   'x, y, z'
   'x+0.66667, y+0.33333, z+0.33333'
   'x+0.33333, y+0.66667, z+0.66667'
   '-y, x-y, z'
   '-y+0.66667, x-y+0.33333, z+0.33333'
   '-y+0.33333, x-y+0.66667, z+0.66667'
   '-x+y, -x, z'
   '-x+y+0.66667, -x+0.33333, z+0.33333'
   '-x+y+0.33333, -x+0.66667, z+0.66667'
   'x-y, -y, -z+0.5'
   'x-y+0.66667, -y+0.33333, -z+0.83333'
   'x-y+0.33333, -y+0.66667, -z+0.16667'
   '-x, -x+y, -z+0.5'
   '-x+0.66667, -x+y+0.33333, -z+0.83333'
   '-x+0.33333, -x+y+0.66667, -z+0.16667'
   'y, x, -z+0.5'
   'y+0.66667, x+0.33333, -z+0.83333'
   'y+0.33333, x+0.66667, -z+0.16667'
   '-x, -y, -z'
   '-x+0.66667, -y+0.33333, -z+0.33333'
   '-x+0.33333, -y+0.66667, -z+0.66667'
   'y, -x+y, -z'
   'y+0.66667, -x+y+0.33333, -z+0.33333'
   'y+0.33333, -x+y+0.66667, -z+0.66667'
   'x-y, x, -z'
   'x-y+0.66667, x+0.33333, -z+0.33333'
   'x-y+0.33333, x+0.66667, -z+0.66667'
   '-x+y, y, z+0.5'
   '-x+y+0.66667, y+0.33333, z+0.83333'
   '-x+y+0.33333, y+0.66667, z+0.16667'
   'x, x-y, z+0.5'
   'x+0.66667, x-y+0.33333, z+0.83333'
   'x+0.33333, x-y+0.66667, z+0.16667'
   '-y, -x, z+0.5'
   '-y+0.66667, -x+0.33333, z+0.83333'
   '-y+0.33333, -x+0.66667, z+0.16667'
_cell_length_a       15.81941
_cell_length_b       15.81941
_cell_length_c        4.56155
_cell_angle_alpha    90.0000
_cell_angle_beta     90.0000
_cell_angle_gamma   120.0000
_cell_formula_units_Z 18
loop_
_atom_site_label
_atom_site_fract_x
_atom_site_fract_y
_atom_site_fract_z
_atom_site_occupancy
_atom_site_B_iso_or_equiv
si      0.567   0.567   0.750    1.00000    1.000
o      0.586   0.667   0.917    1.00000    1.000
o      0.667   0.833   0.833    1.00000    1.000
_cell_measurement_wavelength    1.541874
_cell_measurement_radiation   'x-rays'
_exptl_crystal_density_diffrn    1.816000
loop_
_pd_peak_d_spacing
_pd_peak_intensity
     7.909705       1000.00
     4.566670         10.54
     4.327951          0.00
     3.954853        184.13
     3.796748          0.00
     3.422841        257.51
     2.989588          9.53
     2.919511        150.95
     2.738895          0.00
     2.636568         60.66
     2.588125          5.23
     2.348834          0.00
     2.283335          1.47
     2.251653         18.12
     2.249811          0.47
     2.193758         11.88
     2.165615          4.32
     2.163976          0.04
     2.087270          2.46
     2.019513          0.51
     1.977426         15.04
     1.955532          0.40
     1.899481         11.41
     1.898374          1.82
     1.845953          4.36
     1.814611          3.91
     1.798586         14.37
     1.753816          9.59
     1.752945         21.25
     1.726039          8.99
     1.711421         23.43
     1.672714          6.59
     1.637228          0.73
     1.603243          0.00
     1.602578          9.23
     1.581941          0.37
     1.571290          3.35
     1.540583          1.46
     1.522223          8.39
     1.512727          4.02
     1.494794          0.07
     1.493178          1.03
     1.485798         16.62
     1.485269         21.22
     1.460258          2.85
     1.459756         21.68
     1.442650          0.00
     1.420625          2.52
     1.419237          0.42
     1.390446          7.81
     1.369863          8.53
     1.369448          0.87
     1.355295          7.99
     1.349373         10.61
     1.330536          7.87
     1.318284          0.16
     1.317175         17.90
     1.312101          0.00
     1.311737          0.17
     1.300348          6.85
     1.294413          2.20
     1.294062         14.89
     1.277084          0.14
     1.266566          0.89
     1.265583          0.00
     1.261080          0.05
     1.249687          2.12
     1.245352          3.79
     1.215293          0.58
     1.206219          2.00
     1.205369          5.86
     1.201477          0.00
     1.187851          0.42
     1.187581          0.10
     1.174679          1.42
     1.174417          1.24
     1.165454          0.34
     1.161682          2.39
     1.149598          2.96
     1.141668          8.07
     1.140947          6.55
     1.137407          6.78
     1.136457          0.34
     1.129958          2.92
     1.126057         10.67
     1.125826          0.52
     1.124905          4.47
     1.113699          1.54
     1.096879          1.12
     1.096240          0.00
     1.093310          0.52
     1.093098          1.76
     1.092255          1.45
     1.083013          0.78
     1.082807          0.80
     1.081988          3.84
     1.075771          0.00
     1.072802          0.28
     1.072005          0.01
     1.065957          3.53
     1.063262          2.94
     1.053595          0.32
     1.052840          1.45
     1.047666          2.28
     1.044555          0.05
     1.043635          0.17
     1.038053          0.04
     1.035384          1.68
     1.034668          2.90
     1.026801          0.07
     1.018257          0.08
     1.017405          0.27
     1.012734          1.57
     1.009923          0.69
     1.009756          3.71
##############################################################################
###                            Comments                                    ###
##############################################################################
###   Diffraction pattern calculated by Match!. 
###   I/Ic calculated by Match!. 
##############################################################################


