##############################################################################
###               Crystal structure data exported by Match!                ###
##############################################################################
###                           Data published by:                           ###
###                                                                        ###
###               COD (Crystallography Open Database)
##############################################################################
data_8104074
_citation_journal_full    'Zeitschrift fuer Kristallographie (149,1979-)'
_citation_journal_volume  '208'
_citation_page_first  '374'
_citation_page_last   '375'
_citation_year  '1993'
_citation_title  'Crystal structure of cobalt ultraphosphate, Co P4 O11'
loop_
_publ_author_name
  'Olbertz A.'
  'Stachel D.'
  'Fuess H.'
  'Svoboda I.'
_chemical_formula_sum  'Co O11 P4'
_chemical_name_common  'Co (P4 O11)'
_symmetry_space_group_name_H-M 'P 1 21/c 1'
_space_group_IT_number 14
_space_group_crystal_system 'monoclinic'
loop_
_symmetry_equiv_pos_as_xyz
   'x, y, z'
   '-x, y+0.5, -z+0.5'
   '-x, -y, -z'
   'x, -y+0.5, z+0.5'
_cell_length_a        5.32000
_cell_length_b       22.26300
_cell_length_c        7.40800
_cell_angle_alpha    90.0000
_cell_angle_beta    110.0700
_cell_angle_gamma    90.0000
_cell_formula_units_Z 4
loop_
_atom_site_label
_atom_site_fract_x
_atom_site_fract_y
_atom_site_fract_z
_atom_site_occupancy
_atom_site_B_iso_or_equiv
o      0.929   0.576   0.359    1.00000    1.000
co      0.004   0.386   0.370    1.00000    1.000
o      0.223   0.455   0.315    1.00000    1.000
o      0.085   0.655   -0.094    1.00000    1.000
o      0.463   0.733   -0.001    1.00000    1.000
o      0.446   0.537   0.202    1.00000    1.000
p      0.694   0.572   0.187    1.00000    1.000
o      0.257   0.693   0.237    1.00000    1.000
p      0.398   0.804   -0.031    1.00000    1.000
p      0.323   0.678   0.055    1.00000    1.000
o      0.769   0.545   0.019    1.00000    1.000
p      0.403   0.465   0.208    1.00000    1.000
o      0.192   0.817   0.053    1.00000    1.000
o      0.653   0.836   0.019    1.00000    1.000
o      0.574   0.636   0.116    1.00000    1.000
o      0.662   0.435   0.250    1.00000    1.000
_cell_measurement_wavelength    1.541874
_cell_measurement_radiation   'x-rays'
_exptl_crystal_density_diffrn    2.891000
loop_
_pd_peak_d_spacing
_pd_peak_intensity
    11.131500        239.07
     6.641326          0.00
     5.900265         56.20
     5.565750        301.64
     5.075898        303.64
     4.996938        178.62
     4.875635        344.06
     4.823471        507.21
     4.558689         25.39
     4.515965        531.36
     4.346353        147.88
     4.144872       1000.00
     4.112681          0.44
     3.750447         47.24
     3.718257        751.64
     3.710500         11.19
     3.694965        223.96
     3.482382        170.49
     3.479071          3.09
     3.467137         15.45
     3.437353        313.83
     3.425841         26.30
     3.361207        209.22
     3.324319        361.38
     3.320663        932.58
     3.310281        225.79
     3.307642        882.64
     3.274070         67.69
     3.184626          0.57
     3.150078        257.93
     3.141211         22.01
     2.979012         76.01
     2.978453          1.81
     2.966993        315.59
     2.950133         11.37
     2.942846         22.35
     2.892587          2.56
     2.782875        203.95
     2.764131          2.74
     2.741450         32.01
     2.735600          2.67
     2.683069         25.79
     2.674278         18.09
     2.640841        108.54
     2.586808        121.90
     2.583884         24.03
     2.555913         27.09
     2.537949        146.18
     2.533305          8.04
     2.503683          2.78
     2.498469          6.37
     2.483401          1.03
     2.482883          7.28
     2.470414          1.56
     2.468093         47.08
     2.455344         17.61
     2.437817          0.04
     2.434412        199.07
     2.431265        140.30
     2.424718          0.54
     2.423814        228.23
     2.411735         26.78
     2.399713          4.96
     2.391890        190.82
     2.367871         20.16
     2.361586         10.45
     2.355032          6.05
     2.347395         27.06
     2.343949          2.06
     2.343719        120.72
     2.330761         61.68
     2.325718         10.63
     2.306895          0.02
     2.283301          0.70
     2.279344         49.34
     2.270615          5.08
     2.267886          0.22
     2.257982          2.56
     2.241671         11.97
     2.226300          3.62
     2.216899         93.07
     2.213775          0.05
     2.211932         32.13
     2.184423         22.47
     2.178883         14.80
     2.173177          0.12
     2.170259          3.29
     2.168867          0.17
     2.161666         23.51
     2.160200          7.45
     2.145904         51.38
     2.140923          5.22
     2.120723         10.55
     2.120409        101.09
     2.092434         21.47
     2.086661          0.37
     2.072436         19.45
     2.063812         17.15
     2.059696         10.67
     2.057031         57.94
     2.056340         79.26
     2.047701          2.26
     2.043997         38.40
     2.040251          0.06
     2.033596         37.49
     2.029761          2.32
     2.024989         41.24
     2.016988          1.61
     2.016021          0.48
     2.013691         12.67
     1.989636         15.56
     1.966755         53.23
     1.964724          0.24
     1.961427          0.45
     1.957371         10.32
     1.950993         66.47
     1.943369         36.07
     1.940443          6.02
     1.922732         41.19
     1.921764         95.50
     1.896308         88.73
     1.882435         26.88
     1.875881          9.85
     1.875224          9.34
     1.873988          0.89
     1.873348          2.52
     1.872869          1.31
     1.866063        107.36
     1.859129        188.87
     1.855250         15.98
     1.852895          0.01
     1.851974         59.63
     1.847539         13.39
     1.847482          2.10
     1.846703         46.71
     1.845600         12.05
     1.838516          0.45
     1.826863          0.11
     1.824886         21.24
     1.815734          0.00
     1.811321          0.71
     1.796865          0.03
     1.792624          8.55
     1.781697          8.88
     1.774883          5.41
     1.770004          8.85
     1.762891          0.03
     1.757850         37.84
     1.757390          4.04
     1.757247          2.68
     1.757107          0.14
     1.755274          9.10
     1.755139          0.46
     1.752578          2.50
     1.750055          3.02
     1.749710          1.01
     1.749423         17.45
     1.747995          6.03
     1.747900         79.25
     1.741191          1.30
     1.740916          8.63
     1.740395          0.21
     1.739536          1.37
     1.739244          0.11
     1.736843          4.39
     1.734250          0.00
     1.733721          9.42
     1.733568         23.23
     1.728337          0.44
     1.726198          5.92
     1.718676          4.74
     1.715160         14.10
     1.714897         25.90
     1.712921          0.36
     1.709961          4.58
     1.708019         44.41
     1.707146          6.83
     1.693628          4.68
     1.691966         31.35
     1.691625          1.81
     1.688120          1.93
     1.680604          3.75
     1.680356         22.28
     1.674185          5.54
     1.673883          5.09
     1.671803          0.01
     1.665646         49.02
     1.662913         29.40
     1.662160          6.60
     1.661004          0.76
     1.660332         80.60
     1.657700         27.42
     1.657041          1.67
     1.655141        101.80
     1.653821          8.98
     1.647380          0.09
     1.647306          0.84
     1.642455          3.76
     1.641826          6.94
     1.639097         30.34
     1.638868         16.51
     1.637035         10.47
     1.635787          0.91
     1.632861         16.73
     1.629207          0.00
     1.625212          0.73
     1.620274          6.61
     1.620038          8.54
     1.618097         21.92
     1.615448         10.24
     1.614259          6.22
     1.613702          1.86
     1.610601          5.46
     1.607824         20.75
     1.606130          2.11
     1.600413          0.07
     1.599084         73.27
     1.595721         44.48
     1.592313          0.28
     1.592102         16.45
     1.590214         24.96
     1.586593          1.87
     1.579253         14.58
     1.575039          9.09
     1.572661          3.51
     1.570606          5.37
     1.568882         64.77
     1.565592         90.79
     1.560125          3.68
     1.560062          4.84
     1.553643          0.27
     1.550245          0.71
     1.544663          0.27
     1.541870         73.73
     1.541773         15.18
     1.541678          3.34
     1.540440         62.96
     1.539211          0.73
     1.536675         41.46
     1.536480          0.05
     1.535448          0.47
     1.526170          6.28
     1.526038         13.74
     1.524953          1.88
     1.522136          1.23
     1.521621          4.84
     1.519563          1.34
     1.515332          0.63
     1.513743          0.85
     1.505322         15.73
     1.503577          8.27
     1.493394          1.99
     1.493065          2.69
     1.491576         51.36
     1.489506         16.52
     1.489227          0.16
     1.489054          0.00
     1.488240          3.02
     1.486295          4.07
     1.484544          4.23
     1.484071         41.47
     1.483497          2.86
     1.482521          0.13
     1.480784          1.75
     1.478842          1.29
     1.478363          0.00
     1.476873          4.53
     1.475538          0.48
     1.475066         53.26
     1.474854          0.30
     1.471423          0.91
     1.471055          4.25
     1.467326          3.81
     1.465239         12.72
     1.464046          5.75
     1.462488          0.68
     1.462331          1.67
     1.455901          2.82
     1.455256          3.25
     1.454638         26.41
     1.451546          4.77
     1.449625         49.98
     1.449594         26.68
     1.448784          1.05
     1.446294          3.07
     1.445433         10.90
     1.441607          0.23
     1.440737         11.08
     1.439865         43.74
     1.439360         39.07
     1.435625         15.93
     1.435470         19.64
     1.433969          3.01
     1.433087         11.69
     1.432625          3.62
     1.431429          0.72
     1.429203          1.31
     1.428581         27.78
     1.427473          4.80
     1.423756          2.97
     1.422926          1.96
     1.422767          7.05
     1.421451          2.08
     1.419655          0.55
     1.418753         11.00
     1.418021         15.52
     1.417335          0.79
     1.414329          1.30
     1.412564          0.09
     1.409824          4.43
     1.407925          3.94
     1.407435          0.06
     1.403459          8.51
     1.402825          0.13
     1.399097          9.86
     1.398305          0.42
     1.396251          4.00
     1.393515          7.19
     1.391438          5.77
     1.389182          7.13
     1.388918         16.59
     1.383943          5.03
     1.382066          0.33
     1.381928         12.35
     1.381624          0.63
     1.380879          6.90
     1.378321          0.21
     1.377942          2.57
     1.377690          1.87
     1.374532          6.04
     1.374124         15.86
     1.373159          4.38
     1.370894         17.15
     1.370725          3.02
     1.367938         23.83
     1.367800          2.49
     1.367787         11.26
     1.366291          0.50
     1.365164         28.93
     1.364854          8.77
     1.364439         15.09
     1.364424         29.53
     1.361866          0.18
     1.350439          0.32
     1.350067         10.55
     1.346206         34.85
     1.344861         11.74
     1.341535          3.14
     1.340440          1.11
     1.340413          0.24
     1.339339         15.19
     1.339187          5.06
     1.337139         40.54
     1.334755          0.21
     1.334524          0.41
     1.333728          0.34
     1.333689          6.15
     1.332285          5.84
     1.332133         21.66
     1.329809          1.23
     1.329321          5.56
     1.329199          1.85
     1.328265          5.18
     1.327443         12.48
     1.326138          0.09
     1.325988          1.08
     1.325183          0.25
     1.325035         24.32
     1.324029         34.45
     1.320421          1.81
     1.319221          0.06
     1.317970         11.69
     1.316612          1.16
     1.315309          0.64
     1.314647          2.35
     1.313455          3.17
     1.311553          0.21
     1.310700         17.29
     1.309990         12.83
     1.309499          1.76
     1.308959          3.65
     1.308002         19.69
     1.305392          0.46
     1.303240         11.99
     1.303000          0.25
     1.301282         20.43
     1.299890         41.21
     1.297881          2.91
     1.297740          4.76
     1.296049          5.23
     1.294293          0.11
     1.293404          0.98
     1.293293         25.13
     1.292216          0.24
     1.291942          1.26
     1.291328          3.11
     1.290308          6.01
     1.286992          0.22
     1.286990         10.34
     1.286106          0.88
     1.282518          2.13
     1.282171          2.73
     1.278341          0.72
     1.277956          0.02
     1.277847          0.35
     1.277438          8.99
     1.277333         20.95
     1.277243         14.57
     1.276032          6.19
     1.275400         11.09
     1.274994          0.00
     1.274923          5.10
     1.274348          0.77
     1.274196          0.29
     1.274011         20.15
     1.272609          4.19
     1.272247         10.62
     1.269308          2.38
     1.268974          0.22
     1.268839          3.19
     1.267876          0.16
     1.266843          4.70
     1.266805          4.35
     1.266652          3.49
     1.265877         18.01
     1.263769         26.37
     1.261938          1.00
     1.258736          5.47
     1.257356          0.20
     1.256972         12.70
     1.255772         25.31
     1.251842          1.06
     1.250149          5.09
     1.249767          0.08
     1.249235          0.51
     1.247980         14.84
     1.247483         10.14
     1.247272          0.25
     1.244676          1.04
     1.241700         11.44
     1.241441          0.71
     1.239773          5.65
     1.239419          0.20
     1.239168          2.52
     1.237172          0.13
     1.236833          0.01
     1.235497          6.09
     1.235207          0.02
     1.234855          0.61
     1.234046          1.27
     1.233604          1.29
     1.233310          0.48
     1.232902          5.92
     1.231902          0.00
     1.231655          0.54
     1.231409          4.36
     1.230580          0.94
     1.228653          5.33
     1.228363          0.34
     1.228267          0.13
     1.227962          0.02
     1.227672          0.18
     1.227640          4.68
     1.226881          0.81
     1.226121          0.02
     1.225732          1.07
     1.225633          0.02
     1.225109          9.23
     1.225098          0.20
     1.224675          4.70
     1.224549          0.00
     1.224266          2.22
     1.222701         13.51
     1.220381          7.74
     1.218909          3.81
     1.218750          0.06
     1.218727          0.36
     1.218444         10.39
     1.218315          8.78
     1.217804         11.83
     1.217745          4.23
     1.217206         15.24
     1.215632          1.51
     1.213885          2.37
     1.213062          1.12
     1.212869          1.42
     1.212359          9.26
     1.212139         13.41
     1.211907          4.07
     1.211859          3.35
     1.211483          0.21
     1.211249          0.36
     1.209815          0.92
     1.209720          0.01
     1.208736          6.99
     1.208210         11.90
     1.206476          7.70
     1.206142          0.77
##############################################################################
###                            Comments                                    ###
##############################################################################
###   Diffraction pattern calculated by Match!. 
###   I/Ic calculated by Match!. 
##############################################################################


