##############################################################################
###               Crystal structure data exported by Match!                ###
##############################################################################
###                           Data published by:                           ###
###                                                                        ###
###               COD (Crystallography Open Database)
##############################################################################
data_1008517
_citation_journal_full    'Comptes Rendus Hebdomadaires des Seances de l'Academie des Sciences, Serie 2 (1984-1993)'
_citation_journal_volume  '313'
_citation_page_first  '635'
_citation_page_last   '640'
_citation_year  '1991'
_citation_title  'Analyse comparative des modifications structurales $-alpha et $-beta de Co~2~As'
loop_
_publ_author_name
  'Artigas M'
  'Bacmann M'
  'Fruchart D'
  'Fruchart R'
  'Soubeyroux J - L'
  'Wolfers P'
_chemical_formula_sum  'As Co2'
_chemical_name_common  'Cobalt arsenide (2/1) - $-alpha'
_symmetry_space_group_name_H-M 'P -6 2 m'
_space_group_IT_number 189
_space_group_crystal_system 'hexagonal'
loop_
_symmetry_equiv_pos_as_xyz
   'x, y, z'
   '-x+y, -x, -z'
   '-y, x-y, z'
   'x, y, -z'
   '-x+y, -x, z'
   '-y, x-y, -z'
   'x-y, -y, -z'
   '-x, -x+y, -z'
   'y, x, -z'
   'y, x, z'
   'x-y, -y, z'
   '-x, -x+y, z'
_cell_length_a       11.98670
_cell_length_b       11.98670
_cell_length_c        3.58750
_cell_angle_alpha    90.0000
_cell_angle_beta     90.0000
_cell_angle_gamma   120.0000
_cell_formula_units_Z 12
loop_
_atom_site_label
_atom_site_fract_x
_atom_site_fract_y
_atom_site_fract_z
_atom_site_occupancy
_atom_site_B_iso_or_equiv
co      0.299   0.000   0.000    1.00000    1.000
co      0.803   0.000   0.000    1.00000    1.000
co      0.170   0.539   0.500    1.00000    1.000
co      0.124   0.000   0.500    1.00000    1.000
co      0.631   0.000   0.500    1.00000    1.000
co      0.174   0.710   0.000    1.00000    1.000
as      0.000   0.000   0.000    1.00000    1.000
as      0.503   0.000   0.000    1.00000    1.000
as      0.337   0.160   0.500    1.00000    1.000
as      0.333   0.667   0.000    1.00000    1.000
_cell_measurement_wavelength    1.541874
_cell_measurement_radiation   'x-rays'
_exptl_crystal_density_diffrn    8.605000
loop_
_pd_peak_d_spacing
_pd_peak_intensity
    10.380787          1.34
     5.993350         38.90
     5.190393          0.20
     3.923569         35.27
     3.460262          0.03
     3.390728         28.64
     3.078183         30.69
     2.996675        118.26
     2.951170         56.65
     2.879112         11.56
     2.647599         32.68
     2.595197          3.65
     2.490542         91.02
     2.381516         33.82
     2.299872       1000.00
     2.265273         20.98
     2.245424        134.30
     2.102696        697.50
     2.076157         25.19
     1.997783         90.51
     1.984128         66.06
     1.961784        207.15
     1.915388        421.88
     1.864444         26.69
     1.796938         51.09
     1.793750        398.29
     1.767556          0.02
     1.745399         70.97
     1.730131        443.03
     1.721239        221.98
     1.718436          2.10
     1.706591          7.44
     1.695364          0.02
     1.662256          7.48
     1.654366         25.42
     1.631351          4.56
     1.592496          0.01
     1.583055          5.04
     1.558373          0.83
     1.541104          3.83
     1.539091         31.44
     1.522449          2.68
     1.508222         12.33
     1.498338         47.24
     1.482970         10.98
     1.475585          0.97
     1.448315          8.86
     1.439556         40.21
     1.432798         10.37
     1.406259          6.73
     1.382595         18.36
     1.374969          0.34
     1.370493         16.45
     1.357323          9.75
     1.336008          7.33
     1.334696         37.41
     1.329124         12.83
     1.323799         86.76
     1.307856         31.93
     1.297598          0.67
     1.292643         12.31
     1.283900          2.94
     1.268215          5.93
     1.246336          9.22
     1.245271        241.45
     1.236407          3.79
     1.228750         17.43
     1.220232          1.50
     1.219232          4.04
     1.214979          8.54
     1.198670          1.08
     1.195701         42.93
     1.190758          7.10
     1.187977          0.92
     1.186925          3.17
     1.172718          1.49
     1.167930          1.79
     1.165305          3.07
     1.153421          0.06
     1.150775          4.97
     1.149936         35.04
     1.143884          1.86
     1.142945          7.17
     1.136888         24.64
     1.132637         64.07
     1.130243          5.55
     1.130131        127.57
     1.122712         28.54
     1.110666         59.59
     1.110560         33.44
     1.104363          9.38
     1.098063          1.89
     1.091254          0.22
     1.088202         10.49
     1.086078         56.33
     1.080085          0.12
     1.076437          0.22
     1.068673          6.20
     1.067907         10.87
     1.057524         43.24
     1.056782         27.89
     1.054009          1.46
     1.051348          0.60
     1.041349         24.87
     1.038079          2.28
     1.036235          6.22
     1.035536          5.47
     1.031025         42.50
     1.026061          9.73
     1.022849          4.55
     1.021085         31.92
     1.011267         11.03
     1.006581          4.05
##############################################################################
###                            Comments                                    ###
##############################################################################
###   Diffraction pattern calculated by Match!. 
###   I/Ic calculated by Match!. 
##############################################################################


