##############################################################################
###               Crystal structure data exported by Match!                ###
##############################################################################
###                           Data published by:                           ###
###                                                                        ###
###               COD (Crystallography Open Database)
##############################################################################
data_9009676
_citation_journal_full    'Journal of Applied Physics'
_citation_journal_volume  '49'
_citation_page_first  '4411'
_citation_page_last   '4416'
_citation_year  '1978'
_citation_title  'High-pressure single-crystal structure determinations for ruby up to 90 kbarusing an automatic diffractometerP = 81 kbar'
loop_
_publ_author_name
  'd?Amour H'
  'Schiferl D.'
  'Denner W.'
  'Schulz H.'
  'Holzapfel W. B.'
_chemical_formula_sum  'Al2 O3'
_chemical_name_mineral  'Corundum'
_symmetry_space_group_name_H-M 'R -3 c'
_space_group_IT_number 167
_space_group_crystal_system 'trigonal (hexagonal axes)'
loop_
_symmetry_equiv_pos_as_xyz
   'x, y, z'
   'x+0.66667, y+0.33333, z+0.33333'
   'x+0.33333, y+0.66667, z+0.66667'
   '-y, x-y, z'
   '-y+0.66667, x-y+0.33333, z+0.33333'
   '-y+0.33333, x-y+0.66667, z+0.66667'
   '-x+y, -x, z'
   '-x+y+0.66667, -x+0.33333, z+0.33333'
   '-x+y+0.33333, -x+0.66667, z+0.66667'
   'x-y, -y, -z+0.5'
   'x-y+0.66667, -y+0.33333, -z+0.83333'
   'x-y+0.33333, -y+0.66667, -z+0.16667'
   '-x, -x+y, -z+0.5'
   '-x+0.66667, -x+y+0.33333, -z+0.83333'
   '-x+0.33333, -x+y+0.66667, -z+0.16667'
   'y, x, -z+0.5'
   'y+0.66667, x+0.33333, -z+0.83333'
   'y+0.33333, x+0.66667, -z+0.16667'
   '-x, -y, -z'
   '-x+0.66667, -y+0.33333, -z+0.33333'
   '-x+0.33333, -y+0.66667, -z+0.66667'
   'y, -x+y, -z'
   'y+0.66667, -x+y+0.33333, -z+0.33333'
   'y+0.33333, -x+y+0.66667, -z+0.66667'
   'x-y, x, -z'
   'x-y+0.66667, x+0.33333, -z+0.33333'
   'x-y+0.33333, x+0.66667, -z+0.66667'
   '-x+y, y, z+0.5'
   '-x+y+0.66667, y+0.33333, z+0.83333'
   '-x+y+0.33333, y+0.66667, z+0.16667'
   'x, x-y, z+0.5'
   'x+0.66667, x-y+0.33333, z+0.83333'
   'x+0.33333, x-y+0.66667, z+0.16667'
   '-y, -x, z+0.5'
   '-y+0.66667, -x+0.33333, z+0.83333'
   '-y+0.33333, -x+0.66667, z+0.16667'
_cell_length_a        4.72120
_cell_length_b        4.72120
_cell_length_c       12.87200
_cell_angle_alpha    90.0000
_cell_angle_beta     90.0000
_cell_angle_gamma   120.0000
loop_
_atom_site_label
_atom_site_fract_x
_atom_site_fract_y
_atom_site_fract_z
_atom_site_occupancy
_atom_site_B_iso_or_equiv
al      0.000   0.000   0.352    1.00000    0.139
o      0.306   0.000   0.250    1.00000    0.220
_cell_measurement_wavelength    1.541874
_cell_measurement_radiation   'x-rays'
_cell_measurement_pressure       8100000.000000
_exptl_crystal_density_diffrn    4.088000
loop_
_pd_peak_d_spacing
_pd_peak_intensity
     3.451150        623.17
     2.528729        952.23
     2.360600        447.08
     2.145333          4.22
     2.068246        982.46
     1.948408         14.93
     1.725575        497.36
     1.587641       1000.00
     1.534357         26.10
     1.502664         33.61
     1.497238         73.45
     1.393067        396.45
     1.362893        611.81
     1.324981         13.14
     1.264365         14.55
     1.227793        179.32
     1.223225         94.68
     1.183068          7.92
     1.180300         70.48
     1.150383          8.81
     1.138027         57.16
     1.129620          3.12
     1.116793         43.29
     1.114560         29.34
     1.089265         85.96
     1.072667         21.31
     1.069531        101.80
     1.037776          2.35
     1.034123        209.32
     1.009517         28.21
##############################################################################
###                            Comments                                    ###
##############################################################################
###   Diffraction pattern calculated by Match!. 
###   I/Ic calculated by Match!. 
##############################################################################


