##############################################################################
###               Crystal structure data exported by Match!                ###
##############################################################################
###                           Data published by:                           ###
###                                                                        ###
###               COD (Crystallography Open Database)
##############################################################################
data_1200016
_citation_journal_full    'Zeitschrift fuer Kristallographie, Kristallgeometrie, Kristallphysik,Kristallchemie (-144,1977)'
_citation_journal_volume  '139'
_citation_page_first  '129'
_citation_page_last   '135'
_citation_year  '1974'
_citation_title  'Refinement of the crystal structure of gibbsite, Al (O H)3'
loop_
_publ_author_name
  'Saalfeld H'
  'Wedde M'
_chemical_formula_sum  'Al H3 O3'
_chemical_name_mineral  'Gibbsite'
_chemical_name_common  'Aluminium hydroxide'
_symmetry_space_group_name_H-M 'P 1 21/n 1'
_space_group_IT_number 14
_space_group_crystal_system 'monoclinic'
loop_
_symmetry_equiv_pos_as_xyz
   'x, y, z'
   '-x+0.5, y+0.5, -z+0.5'
   '-x, -y, -z'
   'x+0.5, -y+0.5, z+0.5'
_cell_length_a        8.68400
_cell_length_b        5.07800
_cell_length_c        9.73600
_cell_angle_alpha    90.0000
_cell_angle_beta     94.5400
_cell_angle_gamma    90.0000
_cell_formula_units_Z 8
loop_
_atom_site_label
_atom_site_fract_x
_atom_site_fract_y
_atom_site_fract_z
_atom_site_occupancy
_atom_site_B_iso_or_equiv
al      0.168   0.529   -0.002    1.00000    1.000
al      0.334   0.024   -0.002    1.00000    1.000
o      0.178   0.218   -0.112    1.00000    1.000
o      0.669   0.656   -0.102    1.00000    1.000
o      0.498   0.132   -0.104    1.00000    1.000
o      -0.021   0.629   -0.107    1.00000    1.000
o      0.297   0.718   -0.105    1.00000    1.000
o      0.819   0.149   -0.102    1.00000    1.000
h      0.101   0.152   -0.124    1.00000    1.000
h      0.595   0.573   -0.098    1.00000    1.000
h      0.503   0.137   -0.190    1.00000    1.000
h      -0.029   0.801   -0.107    1.00000    1.000
h      0.293   0.724   -0.196    1.00000    1.000
h      0.815   0.160   -0.190    1.00000    1.000
_cell_measurement_wavelength    1.541874
_cell_measurement_radiation   'x-rays'
_exptl_crystal_density_diffrn    2.421000
_exptl_crystal_density_meas      2.400000
loop_
_pd_peak_d_spacing
_pd_peak_intensity
     6.730374          0.01
     6.220359          1.71
     4.852726       1000.00
     4.499359          0.37
     4.380040        349.51
     4.328376        167.83
     4.053647          0.13
     3.933681          0.04
     3.508332          0.01
     3.365187         59.67
     3.318233        104.72
     3.294091          1.61
     3.188565         78.07
     3.178132          5.51
     3.112305          0.10
     3.110180         35.26
     3.063656          3.08
     2.954722          0.42
     2.827742          2.31
     2.805131          3.48
     2.728472          0.23
     2.707989          5.86
     2.653559          0.10
     2.652242          7.98
     2.553854          0.06
     2.539000          0.32
     2.508814          1.11
     2.470521         74.34
     2.456338        133.59
     2.436370          0.37
     2.426363         31.68
     2.389456        201.05
     2.380971          5.54
     2.375582          3.80
     2.350717          9.83
     2.293934         44.40
     2.249679         69.78
     2.243458          5.49
     2.241633          3.75
     2.197071          2.74
     2.191794          8.03
     2.190020          0.00
     2.189282          0.44
     2.168550         93.86
     2.164188          0.26
     2.159436         12.75
     2.158163          4.19
     2.154919          0.67
     2.118171          0.09
     2.087320          9.14
     2.073453          1.23
     2.052107        151.43
     2.048469          5.49
     2.037439          4.59
     2.026823          8.63
     2.012345          3.63
     1.997333        111.86
     1.990916          2.05
     1.978876          2.16
     1.967378          4.45
     1.966841         14.21
     1.926902          0.01
     1.925696          2.94
     1.922936          2.54
     1.920789          8.98
     1.919596         73.81
     1.906165          0.59
     1.899720          3.82
     1.890912          0.44
     1.889205          0.61
     1.862840          0.23
     1.852206          1.27
     1.848245          0.45
     1.813138          0.03
     1.807383        129.07
     1.806636          0.54
     1.801559          0.31
     1.796559          3.87
     1.780752          0.05
     1.754166        117.81
     1.753519          4.70
     1.748876          0.19
     1.743447          0.13
     1.738701         10.70
     1.728258          0.02
     1.718225          0.49
     1.700389         11.22
     1.687064        116.53
     1.682594         11.40
     1.681586          0.00
     1.681190          1.14
     1.673097          0.03
     1.667497          0.01
     1.661208          6.01
     1.659117         24.92
     1.647046          9.65
     1.643006          2.05
     1.641548          2.91
     1.640209          0.56
     1.638720         10.71
     1.636097          1.09
     1.633276          2.02
     1.629944          0.14
     1.617575          0.02
     1.607930          2.95
     1.605976          0.54
     1.598231          0.04
     1.597196          0.61
     1.596334          2.97
     1.594282         22.98
     1.589092          9.57
     1.589066          8.28
     1.579393          0.01
     1.579037          5.87
     1.576413         19.74
     1.564405          5.98
     1.563169          0.40
     1.556153          1.64
     1.555090         10.57
     1.554615          0.06
     1.548970          0.02
     1.542066          0.76
     1.541267          0.00
     1.538521          0.21
     1.537549          3.94
     1.534924          0.51
     1.531828          5.53
     1.518483          5.71
     1.512152          8.29
     1.508130          3.62
     1.504886          1.63
     1.501948          0.90
     1.499786          0.13
     1.498032          5.07
     1.487857          0.17
     1.486979          3.63
     1.486928          0.76
     1.486747          4.57
     1.486513          5.01
     1.482399          0.02
     1.478584          0.06
     1.477361          2.90
     1.468734          2.01
     1.462249          0.12
     1.460013         90.89
     1.452350          0.00
     1.443366          0.23
     1.442792         51.29
     1.435337          0.04
     1.433492          0.19
     1.433281          1.46
     1.430433          0.42
     1.428687          0.12
     1.424585          0.11
     1.419628          1.16
     1.418546          0.35
     1.413871         29.66
     1.413815         34.68
     1.407812          4.50
     1.404218         46.72
     1.402565          4.38
     1.401981          0.12
     1.401307          0.25
     1.397068          1.28
     1.397051          0.02
     1.388782          0.01
     1.388240          0.00
     1.387860          2.11
     1.386287          0.01
     1.382909         16.29
     1.380537          4.17
     1.364236         31.33
     1.362061          1.02
     1.361655          3.97
     1.361123          4.07
     1.359455          0.25
     1.353995          5.75
     1.352430          0.22
     1.351216          0.03
     1.348360          0.80
     1.347828          6.03
     1.346075          0.03
     1.341857          0.00
     1.341095          0.02
     1.339675          0.42
     1.337532          0.00
     1.337348          0.06
     1.333980          4.44
     1.333296         15.11
     1.329662          0.15
     1.326780          9.43
     1.326121          3.20
     1.325826          0.02
     1.318787         27.61
     1.313146          3.00
     1.312290          0.54
     1.312162          0.17
     1.311227          0.05
     1.308286          0.22
     1.306874          0.07
     1.306357          0.01
     1.304840          0.12
     1.302720          0.37
     1.301975          6.77
     1.301137          0.03
     1.294941          0.00
     1.290219          0.39
     1.285622          0.54
     1.277717          0.00
     1.276927          5.18
     1.275745          0.01
     1.273735          0.14
     1.271692          0.00
     1.269929          1.86
     1.269500          0.55
     1.269081          1.93
     1.266446          0.04
     1.258777          2.20
     1.256066          2.95
     1.255088          1.19
     1.254451          0.32
     1.254407          3.61
     1.252748          0.18
     1.251242          0.00
     1.250487         13.01
     1.249112          1.91
     1.247502          2.10
     1.246300          0.70
     1.244072          0.01
     1.243860          1.93
     1.241655          0.02
     1.241337          0.03
     1.239120          0.08
     1.235260          5.80
     1.233316          7.10
     1.229433          0.01
     1.228169          5.00
     1.220131          0.17
     1.219394          3.45
     1.218185          8.40
     1.216877         10.49
     1.216738          1.51
     1.214763          0.19
     1.213181         16.04
     1.212954          0.00
     1.212804          0.17
     1.212618          3.20
     1.212065          0.62
     1.212042          0.54
     1.210341          4.66
     1.209283          0.16
     1.208337          0.27
     1.206792          0.00
     1.205387          0.49
     1.203798          0.14
     1.202710          0.02
     1.201560          6.07
     1.199115          0.02
     1.198426          1.44
     1.197678          8.82
     1.196906          2.22
     1.194728         10.98
     1.193653          0.85
     1.193319          0.01
     1.193259          0.01
     1.192960          1.68
     1.192959          2.99
     1.190485          1.57
     1.189928          2.98
     1.189277          0.05
     1.187846          4.30
     1.187791          3.20
     1.186917          0.13
     1.181769          2.91
     1.181429          1.74
     1.181397          3.37
     1.179974          0.02
     1.179626         11.04
     1.178740          0.03
     1.175473          3.66
     1.175358          1.50
     1.171981          0.01
     1.169444          0.01
     1.167817          2.51
     1.167019          0.95
     1.166398          2.69
     1.162016          0.05
     1.161343          0.07
     1.159397          1.90
     1.158141          0.19
     1.157300          3.03
     1.155765          2.06
     1.154769          2.37
     1.150816          0.18
     1.150228          0.38
     1.150217          1.50
     1.149459          0.00
     1.148510          1.22
     1.146967         13.36
     1.145958          1.71
     1.145592          0.33
     1.145168          0.06
     1.144978          0.00
     1.144851          1.23
     1.143344          3.40
     1.138316          0.02
     1.131757          0.38
     1.126624          0.19
     1.125817          0.30
     1.124909          0.04
     1.124840         11.46
     1.122893          5.19
     1.121998          0.00
     1.121729          0.03
     1.120816          2.20
     1.120730          3.14
     1.117171          0.12
     1.116819          0.01
     1.113581          0.05
     1.113562          1.06
     1.113040          0.52
     1.111808          0.14
     1.111288          0.86
     1.110362          2.14
     1.110269          2.74
     1.108119          1.27
     1.107832          0.68
     1.106078          0.17
     1.104872          0.16
     1.100917          0.04
     1.100805          0.22
     1.099879          0.73
     1.099128          0.35
     1.098536          0.00
     1.098487          0.01
     1.098030          0.33
     1.095897          0.53
     1.095802          0.37
     1.095777          0.57
     1.095323          0.63
     1.095010          3.32
     1.094641          2.91
     1.094363          0.04
     1.093656          0.91
     1.092994          0.02
     1.090375          0.04
     1.088251          0.32
     1.085120          0.08
     1.084275         13.55
     1.083801          0.14
     1.083284          0.02
     1.082686          0.01
     1.082542          0.04
     1.082094          2.63
     1.080657          0.18
     1.079718          0.62
     1.079081          0.00
     1.077460          1.82
     1.076467          0.30
     1.075231          0.04
     1.074821          0.00
     1.074374          1.73
     1.072594          0.00
     1.072499          0.30
     1.071235          0.06
     1.067321          0.54
     1.063869          2.52
     1.062855          0.97
     1.062451          0.17
     1.061290          0.06
     1.060984          0.06
     1.060107          0.00
     1.059895          0.48
     1.059871          0.28
     1.059377          0.27
     1.059085          1.03
     1.058750          0.22
     1.058332          0.50
     1.057334          0.00
     1.056987          0.00
     1.056589          0.97
     1.056316          0.33
     1.054860          0.00
     1.054390          0.01
     1.053550          0.04
     1.051106          0.25
     1.050057          0.03
     1.049058          0.05
     1.048611          0.01
     1.045268          0.37
     1.043660          0.53
     1.043621          0.00
     1.043426          0.01
     1.042717          0.01
     1.042329          0.01
     1.039142          2.07
     1.038832          0.71
     1.038384          1.01
     1.037513          0.00
     1.037435          0.02
     1.036727          1.20
     1.035252          0.02
     1.030555          0.26
     1.029796          0.04
     1.029709          0.08
     1.029180          0.02
     1.026533          0.16
     1.026115          0.10
     1.026054          9.77
     1.024818          0.04
     1.024234          0.31
     1.023798          0.15
     1.023775          2.52
     1.023135          0.05
     1.021983          0.87
     1.021625          0.20
     1.021405          0.52
     1.021219          0.01
     1.020502          0.02
     1.018719          0.20
     1.017753          0.18
     1.016440          1.69
     1.015773          0.01
     1.013412          0.24
     1.013191          0.15
     1.011987          1.43
     1.011332          1.58
     1.011326          0.01
     1.010085          0.01
     1.008682          0.02
     1.007475          0.00
     1.007082          0.00
##############################################################################
###                            Comments                                    ###
##############################################################################
###   Diffraction pattern calculated by Match!. 
###   I/Ic calculated by Match!. 
##############################################################################


