##############################################################################
###               Crystal structure data exported by Match!                ###
##############################################################################
###                           Data published by:                           ###
###                                                                        ###
###               COD (Crystallography Open Database)
##############################################################################
data_1514110
_citation_journal_full    'Physical Review (1,1893-132,1963/141,1966-188,1969)'
_citation_journal_volume  '21'
_citation_page_first  '389'
_citation_page_last   '389'
_citation_year  '1923'
_citation_title  'Crystal structure of the rutile type'
loop_
_publ_author_name
  'John A. S.'
_chemical_formula_sum  'Mn O2'
_chemical_name_mineral  'Pyrolusite'
_chemical_name_common  'Manganese(IV) Oxide'
_symmetry_space_group_name_H-M 'P 42/m n m'
_space_group_IT_number 136
_space_group_crystal_system 'tetragonal'
loop_
_symmetry_equiv_pos_as_xyz
   'x, y, z'
   '-y+0.5, x+0.5, z+0.5'
   '-x, -y, z'
   'y+0.5, -x+0.5, z+0.5'
   'x+0.5, -y+0.5, -z+0.5'
   '-x+0.5, y+0.5, -z+0.5'
   'y, x, -z'
   '-y, -x, -z'
   '-x, -y, -z'
   'y+0.5, -x+0.5, -z+0.5'
   'x, y, -z'
   '-y+0.5, x+0.5, -z+0.5'
   '-x+0.5, y+0.5, z+0.5'
   'x+0.5, -y+0.5, z+0.5'
   '-y, -x, z'
   'y, x, z'
_cell_length_a        4.40000
_cell_length_b        4.40000
_cell_length_c        2.87000
_cell_angle_alpha    90.0000
_cell_angle_beta     90.0000
_cell_angle_gamma    90.0000
_cell_formula_units_Z 2
loop_
_atom_site_label
_atom_site_fract_x
_atom_site_fract_y
_atom_site_fract_z
_atom_site_occupancy
_atom_site_B_iso_or_equiv
mn      0.000   0.000   0.000    1.00000    1.000
o      0.303   0.303   0.000    1.00000    1.000
_cell_measurement_wavelength    1.541874
_cell_measurement_radiation   'x-rays'
_exptl_crystal_density_diffrn    5.196000
loop_
_pd_peak_d_spacing
_pd_peak_intensity
     3.111270       1000.00
     2.403834        529.61
     2.200000         92.00
     2.109542        132.96
     1.967740         42.46
     1.622920        504.55
     1.555635        142.48
     1.435000         65.30
     1.391402         77.91
     1.367647          3.20
     1.306012        153.27
     1.303076         86.05
     1.252023          7.34
     1.220340          1.38
     1.201917         22.86
     1.159438          6.59
     1.123034         42.19
     1.100000         23.92
     1.067157          5.71
     1.054771         54.86
     1.037090         27.61
##############################################################################
###                            Comments                                    ###
##############################################################################
###   Diffraction pattern calculated by Match!. 
###   I/Ic calculated by Match!. 
###   Space group has been derived from given symmetry operations. 
##############################################################################


