##############################################################################
###               Crystal structure data exported by Match!                ###
##############################################################################
###                           Data published by:                           ###
###                                                                        ###
###               COD (Crystallography Open Database)
##############################################################################
data_9011662
_citation_journal_full    'Physical Review B'
_citation_journal_volume  '48'
_citation_page_first  '4335'
_citation_page_last   '4351'
_citation_year  '1993'
_citation_title  'Electronic, optical, and structural properties of some wurtzite crystals'
loop_
_publ_author_name
  'Xu Y. N.'
  'Ching W. Y.'
_chemical_formula_sum  'O Zn'
_chemical_name_mineral  'Zincite'
_chemical_name_common  'Zinc oxide'
_symmetry_space_group_name_H-M 'P 63 m c'
_space_group_IT_number 186
_space_group_crystal_system 'hexagonal'
loop_
_symmetry_equiv_pos_as_xyz
   'x, y, z'
   'x-y, x, z+0.5'
   '-y, x-y, z'
   '-x, -y, z+0.5'
   '-x+y, -x, z'
   'y, -x+y, z+0.5'
   '-x+y, y, z'
   'x, x-y, z'
   '-y, -x, z'
   'y, x, z+0.5'
   'x-y, -y, z+0.5'
   '-x, -x+y, z+0.5'
_cell_length_a        3.24900
_cell_length_b        3.24900
_cell_length_c        5.20700
_cell_angle_alpha    90.0000
_cell_angle_beta     90.0000
_cell_angle_gamma   120.0000
loop_
_atom_site_label
_atom_site_fract_x
_atom_site_fract_y
_atom_site_fract_z
_atom_site_occupancy
_atom_site_B_iso_or_equiv
zn      0.667   0.333   0.000    1.00000    1.000
o      0.667   0.333   0.345    1.00000    1.000
_cell_measurement_wavelength    1.541874
_cell_measurement_radiation   'x-rays'
_exptl_crystal_density_diffrn    5.678000
loop_
_pd_peak_d_spacing
_pd_peak_intensity
     2.813717        470.55
     2.603500        287.45
     2.475419       1000.00
     1.910953        160.51
     1.624500        282.56
     1.477222        284.21
     1.406858         38.71
     1.378212        183.09
     1.358158        119.26
     1.301750         20.69
     1.237710         29.31
     1.181438         21.01
     1.092920         80.86
     1.063485         24.66
     1.041974         86.60
     1.015840         50.32
##############################################################################
###                            Comments                                    ###
##############################################################################
###   Diffraction pattern calculated by Match!. 
###   I/Ic calculated by Match!. 
###   Space group has been derived from given symmetry operations. 
##############################################################################


