##############################################################################
###               Crystal structure data exported by Match!                ###
##############################################################################
###                           Data published by:                           ###
###                                                                        ###
###               COD (Crystallography Open Database)
##############################################################################
data_9008578
_citation_journal_full    'Crystal Structures'
_citation_journal_volume  '1'
_citation_page_first  '7'
_citation_page_last   '83'
_citation_year  '1963'
_citation_title  'Second edition. Interscience Publishers, New York, New York'
loop_
_publ_author_name
  'Wyckoff R. W. G.'
_chemical_formula_sum  'S6'
_chemical_name_mineral  'Sulphur'
_chemical_name_common  'Sulphur'
_symmetry_space_group_name_H-M 'R -3'
_space_group_IT_number 148
_space_group_crystal_system 'trigonal (hexagonal axes)'
loop_
_symmetry_equiv_pos_as_xyz
   'x, y, z'
   'x+0.66667, y+0.33333, z+0.33333'
   'x+0.33333, y+0.66667, z+0.66667'
   '-y, x-y, z'
   '-y+0.66667, x-y+0.33333, z+0.33333'
   '-y+0.33333, x-y+0.66667, z+0.66667'
   '-x+y, -x, z'
   '-x+y+0.66667, -x+0.33333, z+0.33333'
   '-x+y+0.33333, -x+0.66667, z+0.66667'
   '-x, -y, -z'
   '-x+0.66667, -y+0.33333, -z+0.33333'
   '-x+0.33333, -y+0.66667, -z+0.66667'
   'y, -x+y, -z'
   'y+0.66667, -x+y+0.33333, -z+0.33333'
   'y+0.33333, -x+y+0.66667, -z+0.66667'
   'x-y, x, -z'
   'x-y+0.66667, x+0.33333, -z+0.33333'
   'x-y+0.33333, x+0.66667, -z+0.66667'
_cell_length_a       10.81800
_cell_length_b       10.81800
_cell_length_c        4.28000
_cell_angle_alpha    90.0000
_cell_angle_beta     90.0000
_cell_angle_gamma   120.0000
loop_
_atom_site_label
_atom_site_fract_x
_atom_site_fract_y
_atom_site_fract_z
_atom_site_occupancy
_atom_site_B_iso_or_equiv
s      0.145   0.188   0.105    1.00000    1.000
_cell_measurement_wavelength    1.541874
_cell_measurement_radiation   'x-rays'
_exptl_crystal_density_diffrn    2.210000
loop_
_pd_peak_d_spacing
_pd_peak_intensity
     5.409000        194.11
     3.892993       1000.00
     3.159710         39.54
     3.122888        323.48
     2.728311        784.84
     2.704500        220.32
     2.221119         33.36
     2.086265         22.94
     2.054637         79.72
     2.044410        152.20
     1.946497         30.03
     1.920733        173.85
     1.831514        158.86
     1.803000          3.19
     1.716452         31.33
     1.651887        204.00
     1.636053        104.81
     1.579855         35.10
     1.565986        102.73
     1.561444         38.24
     1.516492         45.24
     1.500187        163.29
     1.449218         11.15
     1.426667          7.40
     1.409725          0.12
     1.379489         12.42
     1.364155          6.02
     1.355197         64.23
     1.352250          2.62
     1.322737         14.65
     1.297664         44.07
     1.277382         60.89
     1.261859         71.26
     1.250091         33.04
     1.243186         10.95
     1.240910          8.87
     1.188233         14.61
     1.180341          4.17
     1.169958         21.57
     1.155029          1.73
     1.134734         25.45
     1.129563          0.40
     1.118786          0.18
     1.110560         36.55
     1.105710          3.71
     1.081800          4.84
     1.063089         17.11
     1.062213         37.97
     1.053237          4.84
     1.046364         12.76
     1.043133          1.09
     1.042305         38.86
     1.040963         10.81
     1.033820         59.41
     1.027319         18.31
     1.024260          6.66
     1.023476          9.41
     1.022205          8.29
     1.009276          1.90
##############################################################################
###                            Comments                                    ###
##############################################################################
###   Diffraction pattern calculated by Match!. 
###   I/Ic calculated by Match!. 
##############################################################################


