##############################################################################
###               Crystal structure data exported by Match!                ###
##############################################################################
###                           Data published by:                           ###
###                                                                        ###
###               COD (Crystallography Open Database)
##############################################################################
data_9013071
_citation_journal_full    'International Journal of Coal Geology'
_citation_journal_volume  '71'
_citation_page_first  '115'
_citation_page_last   '121'
_citation_year  '2007'
_citation_title  'Arsenic in iron disulfides in a brown coal from the North Bohemian Basin,Czech RepublicLocality: Dul CSA mine, North Bohemian Basin, Czech RepublicSample: natural As-pyrite'
loop_
_publ_author_name
  'Rieder M.'
  'Crelling J. C.'
  'Sustai O.'
  'Drabek M.'
  'Weiss Z.'
  'Klementova M.'
_chemical_formula_sum  'As0.54 Fe S1.46'
_chemical_name_mineral  'Pyrite'
_symmetry_space_group_name_H-M 'P a -3'
_space_group_IT_number 205
_space_group_crystal_system 'cubic'
loop_
_symmetry_equiv_pos_as_xyz
   'x, y, z'
   'z, x, y'
   'y, z, x'
   '-y+0.5, -z, x+0.5'
   'z+0.5, -x+0.5, -y'
   '-y, z+0.5, -x+0.5'
   '-z+0.5, -x, y+0.5'
   '-z, x+0.5, -y+0.5'
   'y+0.5, -z+0.5, -x'
   '-x+0.5, -y, z+0.5'
   'x+0.5, -y+0.5, -z'
   '-x, y+0.5, -z+0.5'
   '-x, -y, -z'
   '-z, -x, -y'
   '-y, -z, -x'
   'y+0.5, z, -x+0.5'
   '-z+0.5, x+0.5, y'
   'y, -z+0.5, x+0.5'
   'z+0.5, x, -y+0.5'
   'z, -x+0.5, y+0.5'
   '-y+0.5, z+0.5, x'
   'x+0.5, y, -z+0.5'
   '-x+0.5, y+0.5, z'
   'x, -y+0.5, z+0.5'
_cell_length_a        5.42900
_cell_length_b        5.42900
_cell_length_c        5.42900
_cell_angle_alpha    90.0000
_cell_angle_beta     90.0000
_cell_angle_gamma    90.0000
loop_
_atom_site_label
_atom_site_fract_x
_atom_site_fract_y
_atom_site_fract_z
_atom_site_occupancy
_atom_site_B_iso_or_equiv
fe      0.000   0.000   0.000    1.00000    1.989
s      0.385   0.385   0.385    0.73000    0.970
as      0.385   0.385   0.385    0.27000    0.970
_cell_measurement_wavelength    1.541874
_cell_measurement_radiation   'x-rays'
_exptl_crystal_density_diffrn    5.941000
loop_
_pd_peak_d_spacing
_pd_peak_intensity
     3.134435        153.45
     2.714500        956.14
     2.427923       1000.00
     2.216380        832.16
     1.919441        420.39
     1.809667         11.42
     1.636905        970.57
     1.567217        114.75
     1.505734        285.22
     1.450961        378.08
     1.357250         24.28
     1.316726         12.16
     1.279628          6.88
     1.245498         35.15
     1.213961         59.78
     1.184705        137.44
     1.157467         66.65
     1.108190         62.11
     1.085800          5.39
     1.064714          7.80
     1.044812        250.48
     1.008140        154.77
##############################################################################
###                            Comments                                    ###
##############################################################################
###   Diffraction pattern calculated by Match!. 
###   I/Ic calculated by Match!. 
##############################################################################


