##############################################################################
###               Crystal structure data exported by Match!                ###
##############################################################################
###                           Data published by:                           ###
###                                                                        ###
###               COD (Crystallography Open Database)
##############################################################################
data_9013578
_citation_journal_full    'American Mineralogist'
_citation_journal_volume  '94'
_citation_page_first  '451'
_citation_page_last   '460'
_citation_year  '2009'
_citation_title  'Molecular conformation and anion configuration variations for As4S4 andAs4Se4 in an anion-substituted solid solution Locality: synthetic Note:S1Se1-10'
loop_
_publ_author_name
  'Kyono A.'
_chemical_formula_sum  'As S0.562 Se0.437'
_chemical_name_mineral  'Realgar'
_symmetry_space_group_name_H-M 'P 1 21/n 1'
_space_group_IT_number 14
_space_group_crystal_system 'monoclinic'
loop_
_symmetry_equiv_pos_as_xyz
   'x, y, z'
   '-x+0.5, y+0.5, -z+0.5'
   '-x, -y, -z'
   'x+0.5, -y+0.5, z+0.5'
_cell_length_a        9.47250
_cell_length_b       13.64930
_cell_length_c        6.65790
_cell_angle_alpha    90.0000
_cell_angle_beta    106.5420
_cell_angle_gamma    90.0000
loop_
_atom_site_label
_atom_site_fract_x
_atom_site_fract_y
_atom_site_fract_z
_atom_site_occupancy
_atom_site_B_iso_or_equiv
as      0.119   -0.020   0.760    1.00000    1.981
as      0.424   0.140   0.860    1.00000    1.942
as      0.322   0.129   0.177    1.00000    1.958
as      0.040   0.161   0.709    1.00000    2.092
s      0.344   -0.009   0.697    0.52700    2.226
se      0.344   -0.009   0.697    0.47300    2.226
s      0.214   -0.025   0.119    0.47600    2.163
se      0.214   -0.025   0.119    0.52400    2.163
s      0.241   0.228   0.640    0.69190    2.266
se      0.241   0.228   0.640    0.30800    2.266
s      0.108   0.214   0.054    0.55500    2.352
se      0.108   0.214   0.054    0.44500    2.352
_cell_measurement_wavelength    1.541874
_cell_measurement_radiation   'x-rays'
_exptl_crystal_density_diffrn    4.105000
loop_
_pd_peak_d_spacing
_pd_peak_intensity
     7.560263         68.36
     6.824650         91.90
     6.102589        347.28
     5.781510        579.92
     5.571114        260.59
     5.455589       1000.00
     4.661524        110.89
     4.637247         68.82
     4.549119         13.32
     4.540223         39.98
     4.390763          0.66
     4.308136          8.08
     4.124723        149.31
     4.067723         11.60
     3.835581         24.21
     3.780132        127.04
     3.704779         58.75
     3.654404         74.07
     3.647595          6.78
     3.412325         25.60
     3.247658          5.89
     3.226783        108.03
     3.213791        400.59
     3.194231        456.48
     3.193084          0.33
     3.191169        429.86
     3.135457          8.19
     3.107373        137.67
     3.097538        449.54
     3.051295         13.11
     3.020730        133.68
     3.009227        174.44
     2.986145        241.43
     2.978340          0.24
     2.977795        218.88
     2.959377        482.73
     2.955029         23.70
     2.890755        166.76
     2.820607        249.15
     2.785557         34.74
     2.766895        159.32
     2.748412        579.62
     2.727794        194.10
     2.718193        248.50
     2.682377          0.80
     2.679403        100.97
     2.662925         31.23
     2.614277        184.31
     2.612598         81.68
     2.569625         20.36
     2.560468         55.65
     2.550201        206.71
     2.534164          0.08
     2.520088        111.05
     2.509909          0.00
     2.491903        184.45
     2.475542         67.12
     2.435804         96.33
     2.426316         90.18
     2.379903         88.99
     2.368333          6.47
     2.366285         11.09
     2.352501          1.15
     2.339533         19.01
     2.330762          1.53
     2.327170         55.62
     2.327085          5.99
     2.318623         17.12
     2.308788          2.98
     2.293523          1.46
     2.285877          0.63
     2.274883        174.25
     2.274560          3.18
     2.270111         24.06
     2.264365         50.23
     2.254727         68.49
     2.239351         27.78
     2.231810         35.18
     2.216235        170.66
     2.206688        105.78
     2.195382         42.04
     2.187586         61.22
     2.174501          1.29
     2.163513        100.22
     2.154068         46.35
     2.152365          8.05
     2.152305        139.81
     2.142834          4.38
     2.136836         37.02
     2.131596         45.05
     2.108823         15.13
     2.107877          0.55
     2.102066         18.48
     2.099331          0.31
     2.096101          1.89
     2.076258         59.55
     2.074407          0.15
     2.066025         10.23
     2.065835          6.08
     2.062361         56.94
     2.048022          7.71
     2.042365          2.64
     2.034486          0.46
     2.034196         36.42
     2.033862         20.39
     2.031301          2.50
     2.031050          2.39
     2.027181         18.72
     2.013565         13.94
     2.011975         10.74
     2.003776         62.95
     1.992428         23.10
     1.965662         10.79
     1.953857          0.10
     1.951618          0.63
     1.949441          6.49
     1.948960          2.04
     1.945635         55.33
     1.941931          3.70
     1.931969         36.03
     1.927170          3.81
     1.918578          3.29
     1.917790          9.14
     1.906441         18.17
     1.894500         18.56
     1.891957         25.85
     1.890066          8.98
     1.881159          0.00
     1.876772         52.72
     1.876511         23.72
     1.876403        146.77
     1.870073        169.03
     1.864811          6.75
     1.864127         22.26
     1.858630          1.98
     1.857390          2.20
     1.857038          6.58
     1.852390        101.18
     1.836846          1.05
     1.833807          2.06
     1.833530        160.98
     1.827202         23.28
     1.825470        215.07
     1.823798          6.00
     1.818530         10.29
     1.818328          5.95
     1.807144        141.89
     1.805319         42.10
     1.800394          3.06
     1.800224          2.12
     1.797460          7.92
     1.793575         38.86
     1.791656          0.06
     1.786047         71.08
     1.782844         19.67
     1.777734         17.40
     1.771774          0.28
     1.767212         20.47
     1.758967         27.42
     1.755170          8.82
     1.755013         18.48
     1.748938         26.91
     1.747284         79.57
     1.745447          3.57
     1.730899         15.09
     1.720599        137.13
     1.710894         79.05
     1.706162         63.82
     1.705532          1.64
     1.703273          9.45
     1.701546         73.06
     1.695575         41.93
     1.694111        166.23
     1.690599        106.21
     1.686824         34.77
     1.686684          1.75
     1.685060          2.79
     1.681477          6.22
     1.678046         43.57
     1.676820         35.92
     1.676654          0.23
     1.675038         40.98
     1.663874         13.05
     1.660459         51.24
     1.656346         72.69
     1.650166         12.91
     1.648307          5.06
     1.648283          2.54
     1.643152          8.89
     1.643061         32.86
     1.642108         10.27
     1.641810          3.57
     1.639206         29.43
     1.638405         61.55
     1.631135          0.66
     1.630352          0.45
     1.629266          0.00
     1.629178          3.94
     1.628926          5.02
     1.623829          9.37
     1.617696         26.77
     1.617449         60.95
     1.615922         25.29
     1.613392          3.08
     1.607298          0.10
     1.606896          8.28
     1.603296          1.68
     1.603176          7.93
     1.602511          1.09
     1.601223          0.26
     1.597115         12.56
     1.597012         21.53
     1.596542         80.81
     1.595584          2.31
     1.595182          8.39
     1.587624          0.64
     1.587444         36.70
     1.587231          0.23
     1.584793          5.49
     1.584652          5.33
     1.584420         17.66
     1.580168          0.34
     1.573807         17.89
     1.570371          7.22
     1.567728         35.24
     1.566390          0.01
     1.559827          0.33
     1.559065         32.96
     1.556415          6.99
     1.554318          4.39
     1.553841          2.08
     1.553686          6.13
     1.553629          8.26
     1.548769          0.72
     1.545749          3.51
     1.544585          5.59
     1.538894         23.46
     1.536334         60.54
     1.535931          0.08
     1.533810          3.00
     1.533600          4.09
     1.531789          9.81
     1.525647         62.27
     1.522732          0.01
     1.520849          3.88
     1.517592          2.79
     1.516373         22.16
     1.516205         35.21
     1.514043         65.00
     1.513408          1.92
     1.512153          5.84
     1.512053          1.83
     1.510365          4.31
     1.507563         16.24
     1.505679          6.52
     1.504613         24.95
     1.504190          0.00
     1.503623          4.34
     1.495869          2.78
     1.494454          7.03
     1.493072         33.92
     1.492332         20.69
     1.491395         38.16
     1.489870         43.10
     1.489170          0.16
     1.488897         15.78
     1.488842          3.28
     1.488239          0.27
     1.486298          8.74
     1.481226          3.32
     1.479688         73.72
     1.479157          1.41
     1.477515         11.39
     1.475504          2.46
     1.475165          0.39
     1.471820          1.87
     1.470272         11.29
     1.470207         26.17
     1.470022         52.81
     1.466151         17.03
     1.465383          9.87
     1.463943          5.72
     1.463588          0.70
     1.458781         31.18
     1.455784          4.25
     1.453245          4.54
     1.453227         13.94
     1.448437          2.03
     1.446490          5.04
     1.445377          5.57
     1.441459          0.32
     1.438460         43.57
     1.437464         21.20
     1.436045          0.03
     1.434356          2.72
     1.431376          4.71
     1.431225          3.93
     1.428109          0.43
     1.425780         15.34
     1.424900          9.53
     1.419372          9.54
     1.419288          1.15
     1.418637         17.86
     1.414489          2.49
     1.411170          5.83
     1.410303          2.14
     1.408022          0.23
     1.407645          2.99
     1.407413          7.03
     1.407169         14.04
     1.407142          4.91
     1.404828         10.26
     1.398980          0.16
     1.398821          0.16
     1.392778          5.13
     1.389125          1.03
     1.386876          0.21
     1.385539          2.92
     1.385490          1.07
     1.385258         30.55
     1.384565          0.02
     1.383448          1.33
     1.383007          2.89
     1.379771          9.11
     1.379541         40.43
     1.379507          5.72
     1.379394          1.49
     1.377536          9.16
     1.376874          0.24
     1.374908          0.00
     1.374496          0.33
     1.374206          6.45
     1.373474          1.43
     1.369770          4.79
     1.365399          0.00
     1.364930          1.11
     1.363897          5.68
     1.363019          1.22
     1.362091          0.00
     1.359096          1.73
     1.358844          2.08
     1.358777          2.17
     1.358087          7.84
     1.355908          0.40
     1.351942          2.26
     1.351124          0.07
     1.350908          4.69
     1.349766          0.27
     1.348354          4.67
     1.347072         17.74
     1.345083          0.18
     1.343489          1.86
     1.343077          2.42
     1.341822          0.01
     1.341189          0.81
     1.339702         33.31
     1.337682          0.02
     1.336192          3.72
     1.335979          4.99
     1.334748         12.00
     1.332019          4.21
     1.331775          9.05
     1.331463          0.09
     1.331005         10.76
     1.330673          0.27
     1.329027          0.03
     1.328959          0.91
     1.328536          1.08
     1.326612          0.84
     1.326377         24.90
     1.325279          8.30
     1.324542          0.15
     1.324407          0.95
     1.323611          0.70
     1.322784          0.01
     1.318186          0.03
     1.317185          3.49
     1.316777          1.69
     1.316169          5.29
     1.314868          0.01
     1.312081          0.00
     1.311701          0.30
     1.310691          0.97
     1.309491          2.30
     1.309388          8.10
     1.307228          0.66
     1.307139          4.54
     1.307042          0.01
     1.306927          9.17
     1.306846          0.89
     1.306299          2.51
     1.301703          5.50
     1.300324          0.01
     1.297957          0.26
     1.295935          1.68
     1.294264          2.51
     1.293203          9.68
     1.292930          4.12
     1.292778          1.83
     1.292128         13.12
     1.291387          0.36
     1.289465          9.78
     1.287550          1.28
     1.284813          0.02
     1.284599          0.08
     1.284508          0.12
     1.281552          5.43
     1.280550          1.43
     1.280234          2.75
     1.278527          3.82
     1.277963          4.70
     1.276121          0.24
     1.275940          1.23
     1.275280          0.07
     1.275101          0.00
     1.274389          8.54
     1.273460          7.98
     1.271253          0.97
     1.270922          5.06
     1.269197          0.87
     1.267810          0.27
     1.267082         13.22
     1.266117          0.12
     1.264868          2.92
     1.264693          0.04
     1.264194          1.47
     1.262456          0.35
     1.261256          0.22
     1.261062          0.10
     1.260411          0.00
     1.260044          0.77
     1.259537          0.69
     1.257151          1.90
     1.256232         10.79
     1.256059          2.30
     1.256039          0.45
     1.254955          1.15
     1.254709          2.36
     1.254005          0.88
     1.252494          1.25
     1.251595          1.17
     1.250225          0.11
     1.250111          2.72
     1.249405          6.85
     1.249231          0.44
     1.249041          1.17
     1.248714         18.63
     1.248159         10.30
     1.247492          6.47
     1.245952          0.00
     1.244878          0.55
     1.244268          0.60
     1.243542          0.63
     1.243486          7.15
     1.243175          0.87
     1.241863          0.76
     1.240470          0.31
     1.237771          8.32
     1.236458          5.16
     1.236268          3.14
     1.234926          0.00
     1.234849          0.00
     1.233550          0.34
     1.232712          0.92
     1.231309         12.36
     1.229627         17.57
     1.229420          2.48
     1.229015          0.28
     1.228483          4.72
     1.226083          0.27
     1.224682          1.71
     1.224359          3.34
     1.223379          0.02
     1.220518          0.02
     1.220306          0.28
     1.219934          9.76
     1.218135          0.97
     1.218039          5.40
     1.217902          2.53
     1.217170          0.13
     1.215964          3.42
     1.215865         13.66
     1.215667          6.45
     1.215458          0.60
     1.213158          1.43
     1.212761          4.72
     1.212546          0.32
     1.212359          0.36
     1.211309          6.75
     1.208926          4.26
     1.208108          3.93
     1.205961          0.13
     1.204648          1.21
     1.201563          0.00
     1.201534          6.02
     1.201502         13.10
     1.201456          1.25
     1.201350          0.77
     1.201282          0.48
     1.201253          0.30
##############################################################################
###                            Comments                                    ###
##############################################################################
###   Diffraction pattern calculated by Match!. 
###   I/Ic calculated by Match!. 
##############################################################################


