##############################################################################
###               Crystal structure data exported by Match!                ###
##############################################################################
###                           Data published by:                           ###
###                                                                        ###
###               COD (Crystallography Open Database)
##############################################################################
data_1544678
_citation_journal_full    'Mineralogical Journal'
_citation_journal_volume  '8'
_citation_page_first  '193'
_citation_page_last   '199'
_citation_year  '1976'
_citation_title  'The crystal structure of shattuckite'
loop_
_publ_author_name
  'Kawahara A.'
_chemical_formula_sum  'Cu5 H2 O14 Si4'
_chemical_name_mineral  'Shattuckite'
_symmetry_space_group_name_H-M 'P c a b'
_space_group_IT_number 61
_space_group_crystal_system 'orthorhombic'
loop_
_symmetry_equiv_pos_as_xyz
   'x, y, z'
   '-x, -y+0.5, z+0.5'
   'x+0.5, -y, -z+0.5'
   '-x+0.5, y+0.5, -z'
   '-x, -y, -z'
   'x, y+0.5, -z+0.5'
   '-x+0.5, y, z+0.5'
   'x+0.5, -y+0.5, z'
_cell_length_a        9.88000
_cell_length_b       19.82000
_cell_length_c        5.40000
_cell_angle_alpha    90.0000
_cell_angle_beta     90.0000
_cell_angle_gamma    90.0000
_cell_formula_units_Z 4
loop_
_atom_site_label
_atom_site_fract_x
_atom_site_fract_y
_atom_site_fract_z
_atom_site_occupancy
_atom_site_B_iso_or_equiv
cu      0.000   0.000   0.000    1.00000    2.900
cu      0.169   0.025   0.543    1.00000    3.120
cu      0.251   0.280   0.475    1.00000    3.580
si      0.100   0.155   0.234    1.00000    1.300
si      0.546   0.134   0.225    1.00000    1.490
o      0.507   0.174   0.963    1.00000    3.400
o      0.154   0.077   0.238    1.00000    0.800
o      0.498   0.053   0.219    1.00000    3.400
o      0.209   0.213   0.216    1.00000    1.480
o      0.706   0.152   0.231    1.00000    2.530
o      0.015   0.168   0.981    1.00000    3.150
o      0.326   0.471   0.155    1.00000    3.140
_cell_measurement_wavelength    1.541874
_cell_measurement_radiation   'x-rays'
_exptl_crystal_density_diffrn    4.108000
loop_
_pd_peak_d_spacing
_pd_peak_intensity
     9.910000        233.24
     6.996797          0.31
     4.955000        799.35
     4.940000        106.07
     4.608561          5.18
     4.429194       1000.00
     4.421144        642.55
     4.274894         32.63
     3.850472         21.67
     3.644902        311.47
     3.584788          1.56
     3.498399        807.13
     3.424582         83.91
     3.420857        301.34
     3.303333        553.10
     3.191426        132.19
     3.132865          1.02
     3.125275        124.06
     3.040394         30.22
     2.936089        536.50
     2.783813        755.73
     2.745971        291.07
     2.742771        155.77
     2.709837         10.31
     2.704921        183.12
     2.700000         81.21
     2.683063        269.34
     2.675291          0.65
     2.605044         17.82
     2.587137        614.89
     2.582297         41.65
     2.518955         23.28
     2.499338        101.14
     2.477500         27.76
     2.470000        188.43
     2.447680          2.74
     2.445412         23.30
     2.430558         40.01
     2.423012          0.60
     2.403098        223.28
     2.396678        187.48
     2.370866        861.16
     2.369218         52.41
     2.352470          2.34
     2.332266         81.79
     2.305418        323.61
     2.304281         62.32
     2.293352        304.78
     2.246177         25.09
     2.236033        139.93
     2.231890         12.44
     2.231528         15.93
     2.230153         12.82
     2.214597          4.67
     2.210572         75.98
     2.195511          6.59
     2.190612         36.18
     2.176698         60.06
     2.141101          2.96
     2.137447         21.47
     2.126628         54.65
     2.090530         36.31
     2.076498          0.57
     2.048980          0.03
     2.045791          4.22
     2.045248         51.05
     2.043131          4.49
     2.033663          0.31
     1.997075         25.54
     1.995105        145.52
     1.990925          5.04
     1.982000          2.70
     1.979834         10.63
     1.978154          0.65
     1.954243         34.97
     1.954000         29.37
     1.943284         13.47
     1.937853         93.36
     1.925236        109.23
     1.924132         42.30
     1.916871         12.44
     1.884895         91.83
     1.858837          5.15
     1.857447         43.77
     1.847583          0.05
     1.847378          6.42
     1.839469          8.36
     1.835435          0.47
     1.828488         39.01
     1.825457         12.34
     1.823962         48.07
     1.822451        105.35
     1.817020         30.44
     1.814795         16.15
     1.795075        404.06
     1.792394         81.56
     1.786530          2.27
     1.764968         67.88
     1.763825          6.15
     1.759705         82.85
     1.756835          1.80
     1.749199          2.50
     1.743238          0.04
     1.741218         23.87
     1.737796          0.69
     1.733730         36.13
     1.712291          2.08
     1.710472          0.76
     1.710428         21.38
     1.706552         34.71
     1.698185          1.72
     1.695763         32.82
     1.691228        118.44
     1.685104          8.09
     1.684167         27.43
     1.681650         12.34
     1.680628          1.72
     1.680473          8.63
     1.667556          0.21
     1.667125         12.11
     1.664073         29.16
     1.655836          2.71
     1.651667          1.15
     1.646667         18.89
     1.638398          5.98
     1.629060         49.99
     1.624395        234.90
     1.619968          0.01
     1.617866         10.77
     1.616848          0.27
     1.615236         56.34
     1.613015          2.60
     1.600565          1.31
     1.597730         75.79
     1.596595        123.12
     1.595713          9.18
     1.589446          7.26
     1.577240          1.63
     1.575064          4.09
     1.574487        147.24
     1.574332          1.05
     1.572516         57.37
     1.570114          3.51
     1.566432         51.80
     1.562638         22.64
     1.560732          9.33
     1.559791         40.09
     1.559634          0.20
     1.555566          0.47
     1.555539          5.78
     1.552042          3.83
     1.550072          4.49
     1.545849         15.53
     1.544820          1.01
     1.536187         59.85
     1.532453          4.59
     1.532125          0.51
     1.520197         16.74
     1.517918          3.04
     1.517046          7.09
     1.515206         10.37
     1.505400         23.59
     1.504872         12.48
     1.504415          6.76
     1.501391         10.74
     1.501052          3.40
     1.498737          5.25
     1.486153         10.90
     1.485239         46.51
     1.481786          2.42
     1.479374          0.84
     1.476398         18.04
     1.473715         28.29
     1.468045          0.34
     1.467289         44.24
     1.463748          1.90
     1.454706          3.65
     1.451939          4.78
     1.451339         25.73
     1.450803          0.19
     1.440668          2.17
     1.439282         17.26
     1.437495         69.14
     1.436026        125.02
     1.434186          1.39
     1.424965         12.42
     1.424129         13.69
     1.421721          0.19
     1.420674          0.03
     1.419049          8.38
     1.415714         18.40
     1.408950          0.04
     1.406527         19.83
     1.405842          9.86
     1.405494         20.30
     1.404030          0.90
     1.402319          1.67
     1.401400          3.75
     1.399359         44.48
     1.397327          0.96
     1.396808          1.98
     1.395796         35.73
     1.394838         71.08
     1.391906         63.19
     1.389399          9.63
     1.380024          5.34
     1.379374         18.23
     1.376431          0.00
     1.375056          0.61
     1.372986          2.11
     1.371386          0.25
     1.365651          6.77
     1.364124          3.43
     1.362324          0.55
     1.360931          0.48
     1.357432          1.27
     1.356466         19.11
     1.354919         83.11
     1.354615          1.50
     1.352771          1.26
     1.352461          0.05
     1.350000         74.59
     1.346879         21.89
     1.341532          8.83
     1.341328          8.52
     1.340859          2.95
     1.340259          1.24
     1.337645          0.53
     1.337287          0.50
     1.334536         18.86
     1.331842          8.49
     1.331330          0.42
     1.330648          3.36
     1.329192          6.42
     1.327684          1.16
     1.327583          1.41
     1.325552          0.34
     1.324983         19.26
     1.322669          2.82
     1.320544          0.90
     1.319666         25.63
     1.318836          8.85
     1.316475          0.22
     1.315758          0.40
     1.310973          6.27
     1.304476          0.06
     1.302522          0.95
     1.302249          0.18
     1.300633         17.44
     1.299447          0.81
     1.297916         48.46
     1.295382          4.35
     1.293923          5.36
     1.293569        105.14
     1.292695          6.71
     1.291556          0.84
     1.291348         13.00
     1.291148         19.96
     1.291092          0.62
     1.286520          7.89
     1.285137          5.17
     1.283491          6.36
     1.282093         10.42
     1.281310          1.02
     1.281118          0.10
     1.277923          4.87
     1.277665         16.12
     1.272774          7.52
     1.267365         13.07
     1.267267          1.99
     1.266574          1.44
     1.264473          2.30
     1.262987          1.45
     1.261976          6.75
     1.261492          0.01
     1.261472         13.66
     1.259478          7.40
     1.259175          3.19
     1.254446          1.86
     1.253812          3.20
     1.249669         10.08
     1.248348          0.14
     1.246652          0.30
     1.243836          0.24
     1.242408         33.14
     1.242227          3.72
     1.240985         37.09
     1.239791          0.01
     1.239319          4.31
     1.238750         13.80
     1.237197          2.46
     1.235224          6.65
     1.235000          2.20
     1.234292          7.39
     1.233748          6.32
     1.233123          1.43
     1.233109          0.00
     1.231304          0.02
     1.229980          2.62
     1.229127          3.42
     1.228999          6.52
     1.228265         13.04
     1.227380          0.72
     1.226376          9.46
     1.225520          6.05
     1.223840         18.66
     1.222706         12.36
     1.218577          1.64
     1.215279          1.11
     1.214967          2.15
     1.213797          0.11
     1.212786          8.01
     1.212691          0.25
     1.211506         18.77
     1.211231          7.77
     1.209413          0.27
     1.207843          1.17
     1.205938          0.64
     1.204306          6.42
     1.203916          2.17
     1.201701          0.09
     1.201549         38.24
     1.198473          0.35
     1.198339          3.78
     1.197674          0.38
     1.195922          0.02
     1.195864          0.58
     1.195129          0.77
     1.194929          0.03
     1.194117          0.07
     1.192854          0.05
     1.191374          3.05
     1.187735          0.01
     1.186834          1.16
     1.185854          0.13
     1.185433          2.65
     1.184975          3.46
     1.184609          7.89
     1.184411          0.86
     1.183113          5.03
     1.182499          8.14
     1.181643          0.14
     1.180012          0.42
     1.178362          1.01
     1.178011          5.84
     1.176992         12.97
     1.176235          2.08
     1.172865          0.69
     1.172732          3.29
     1.172283          5.29
     1.171765          3.09
     1.169879          1.15
     1.169778          4.23
     1.169376          1.19
     1.168382          3.96
     1.166133          4.04
     1.166013          0.89
     1.161629          0.07
     1.160546          2.69
     1.159443          0.78
     1.156798          0.08
     1.155398          3.60
     1.153997          0.03
     1.152709          3.58
     1.152140         10.99
     1.151958          5.84
     1.150953          1.12
     1.150832          2.53
     1.149701          7.18
     1.147190          2.94
     1.146676          0.46
     1.144158          0.10
     1.143222          3.29
     1.142852          1.33
     1.141527          0.36
     1.140286          0.33
     1.139857          7.99
     1.138906          0.00
     1.138891          2.82
     1.135011          2.73
     1.133607          1.40
     1.132402          0.30
     1.132117          5.62
     1.131862          1.90
     1.131134          7.96
     1.125907          1.15
     1.125555          2.52
     1.124497          0.44
     1.123089          8.70
     1.121290          2.49
     1.120932          5.50
     1.118666          1.07
     1.118017         15.60
     1.116591          8.89
     1.116544          0.17
     1.116517          0.41
     1.115945         10.04
     1.115764          0.30
     1.115377          0.24
     1.115077          0.25
     1.112932          1.34
     1.110457          1.35
     1.108948          0.34
     1.108716          2.03
     1.108383          6.17
     1.107922          3.42
     1.107705          9.90
     1.107298          1.35
     1.107205          0.03
     1.105781         12.69
     1.105286          0.49
     1.104778          4.00
     1.103777          0.82
     1.101971          0.45
     1.101111          0.10
     1.099155         12.56
     1.097756         10.38
     1.096949          0.39
     1.095467          0.18
     1.095317          0.54
     1.095306          1.07
     1.094336          0.13
     1.092820          0.85
     1.091661          0.01
     1.091104          1.92
     1.090856          2.23
     1.088349          0.59
     1.088315          1.82
     1.087635          0.11
     1.087511          0.01
     1.086513          0.05
     1.085572          1.73
     1.084728          0.01
     1.083794          1.26
     1.082836          0.15
     1.080557          0.44
     1.080392          2.69
     1.076966          0.58
     1.076348          5.03
     1.074737          0.24
     1.074192         13.29
     1.073990          3.03
     1.073509          6.09
     1.073071          1.22
     1.073011          2.39
     1.072534          3.37
     1.072033          0.41
     1.071789          4.10
     1.070550          9.89
     1.070409          1.77
     1.070357          1.07
     1.069750          1.69
     1.069499          2.06
     1.069490          4.19
     1.068724          2.00
     1.067359          0.05
     1.065367          0.11
     1.064130          0.89
     1.063809          0.40
     1.063314          0.46
     1.061789          9.34
     1.059704          1.00
     1.059017          7.96
     1.058676          8.72
     1.057795         24.01
     1.056763          0.02
     1.056367          4.24
     1.056178          1.99
     1.055446          0.10
     1.055080          0.71
     1.054220          0.79
     1.054063          0.01
     1.053588          2.58
     1.052905          2.08
     1.052772          0.47
     1.052479          2.52
     1.052435          0.13
     1.051282          4.79
     1.049562          4.20
     1.049258          1.92
     1.049151          3.96
     1.048168          1.50
     1.046083          0.18
     1.045265          0.25
     1.044288          3.58
     1.043994          0.06
     1.043963          0.58
     1.043252          0.52
     1.042549          2.19
     1.041878          0.11
     1.041758          0.97
     1.041225          2.74
     1.039464          3.95
     1.038249         19.35
     1.038220          6.46
     1.037207          1.54
     1.036270          3.25
     1.036216          6.26
     1.035838          0.00
     1.034792          1.11
##############################################################################
###                            Comments                                    ###
##############################################################################
###   Diffraction pattern calculated by Match!. 
###   I/Ic calculated by Match!. 
###   Space group has been derived from given symmetry operations. 
##############################################################################


