##############################################################################
###               Crystal structure data exported by Match!                ###
##############################################################################
###                           Data published by:                           ###
###                                                                        ###
###               COD (Crystallography Open Database)
##############################################################################
data_9000969
_citation_journal_full    'American Mineralogist'
_citation_journal_volume  '70'
_citation_page_first  '590'
_citation_page_last   '600'
_citation_year  '1985'
_citation_title  'High-temperature structure refinements of calcite and magnesiteSample: T = 750 C'
loop_
_publ_author_name
  'Markgraf S. A.'
  'Reeder R. J.'
_chemical_formula_sum  'C Ca O3'
_chemical_name_mineral  'Calcite'
_symmetry_space_group_name_H-M 'R -3 c'
_space_group_IT_number 167
_space_group_crystal_system 'trigonal (hexagonal axes)'
loop_
_symmetry_equiv_pos_as_xyz
   'x, y, z'
   'x+0.66667, y+0.33333, z+0.33333'
   'x+0.33333, y+0.66667, z+0.66667'
   '-y, x-y, z'
   '-y+0.66667, x-y+0.33333, z+0.33333'
   '-y+0.33333, x-y+0.66667, z+0.66667'
   '-x+y, -x, z'
   '-x+y+0.66667, -x+0.33333, z+0.33333'
   '-x+y+0.33333, -x+0.66667, z+0.66667'
   'x-y, -y, -z+0.5'
   'x-y+0.66667, -y+0.33333, -z+0.83333'
   'x-y+0.33333, -y+0.66667, -z+0.16667'
   '-x, -x+y, -z+0.5'
   '-x+0.66667, -x+y+0.33333, -z+0.83333'
   '-x+0.33333, -x+y+0.66667, -z+0.16667'
   'y, x, -z+0.5'
   'y+0.66667, x+0.33333, -z+0.83333'
   'y+0.33333, x+0.66667, -z+0.16667'
   '-x, -y, -z'
   '-x+0.66667, -y+0.33333, -z+0.33333'
   '-x+0.33333, -y+0.66667, -z+0.66667'
   'y, -x+y, -z'
   'y+0.66667, -x+y+0.33333, -z+0.33333'
   'y+0.33333, -x+y+0.66667, -z+0.66667'
   'x-y, x, -z'
   'x-y+0.66667, x+0.33333, -z+0.33333'
   'x-y+0.33333, x+0.66667, -z+0.66667'
   '-x+y, y, z+0.5'
   '-x+y+0.66667, y+0.33333, z+0.83333'
   '-x+y+0.33333, y+0.66667, z+0.16667'
   'x, x-y, z+0.5'
   'x+0.66667, x-y+0.33333, z+0.83333'
   'x+0.33333, x-y+0.66667, z+0.16667'
   '-y, -x, z+0.5'
   '-y+0.66667, -x+0.33333, z+0.83333'
   '-y+0.33333, -x+0.66667, z+0.16667'
_cell_length_a        4.97800
_cell_length_b        4.97800
_cell_length_c       17.46200
_cell_angle_alpha    90.0000
_cell_angle_beta     90.0000
_cell_angle_gamma   120.0000
loop_
_atom_site_label
_atom_site_fract_x
_atom_site_fract_y
_atom_site_fract_z
_atom_site_occupancy
_atom_site_B_iso_or_equiv
ca      0.000   0.000   0.000    1.00000    3.543
c      0.000   0.000   0.250    1.00000    3.016
o      0.253   0.000   0.250    1.00000    6.528
_cell_measurement_wavelength    1.541874
_cell_measurement_radiation   'x-rays'
_cell_measurement_temperature    1023.100000
_exptl_crystal_density_diffrn    2.661000
loop_
_pd_peak_d_spacing
_pd_peak_intensity
     3.865533         82.35
     3.067451       1000.00
     2.910333         15.07
     2.489000        147.52
     2.288544        124.74
     2.092704        109.95
     1.947369        162.10
     1.932766         58.65
     1.891578        141.74
     1.622385         15.42
     1.618472          8.09
     1.601777         58.19
     1.533726         20.89
     1.530227         10.91
     1.526561         41.55
     1.476622          7.79
     1.455167         20.38
     1.437025         33.64
     1.364195          4.19
     1.356843         11.17
     1.305734         18.85
     1.288511          5.22
     1.256228         15.01
     1.244500          7.24
     1.216994          0.01
     1.198147          2.01
     1.192884          0.00
     1.191326          9.69
     1.184620          3.64
     1.153204         17.40
     1.144272          7.61
     1.137051          0.89
     1.131216          0.00
     1.079576          2.66
     1.078220          0.00
     1.069650          0.30
     1.057999          5.24
     1.054495          0.50
     1.048651         10.13
     1.047530          0.00
     1.046352          7.30
     1.036461          0.40
     1.022484          9.02
##############################################################################
###                            Comments                                    ###
##############################################################################
###   Diffraction pattern calculated by Match!. 
###   I/Ic calculated by Match!. 
##############################################################################


