##############################################################################
###               Crystal structure data exported by Match!                ###
##############################################################################
###                           Data published by:                           ###
###                                                                        ###
###               COD (Crystallography Open Database)
##############################################################################
data_9006305
_citation_journal_full    'Physics and Chemistry of Minerals'
_citation_journal_volume  '21'
_citation_page_first  '269'
_citation_page_last   '284'
_citation_year  '1994'
_citation_title  'Framework silica structures generated using simulated annealingwith a potential energy function based on an H6Si2O7 moleculeSample: 22'
loop_
_publ_author_name
  'Boisen M. B.'
  'Gibbs G. V.'
  'Bukowinski M. S. T.'
_chemical_formula_sum  'O2 Si'
_chemical_name_common  'Silica'
_symmetry_space_group_name_H-M 'P 1 c 1'
_space_group_IT_number 7
_space_group_crystal_system 'monoclinic'
loop_
_symmetry_equiv_pos_as_xyz
   'x, y, z'
   'x, -y, z+0.5'
_cell_length_a        4.21660
_cell_length_b        4.02060
_cell_length_c        7.64230
_cell_angle_alpha    90.0000
_cell_angle_beta    119.6668
_cell_angle_gamma    90.0000
loop_
_atom_site_label
_atom_site_fract_x
_atom_site_fract_y
_atom_site_fract_z
_atom_site_occupancy
_atom_site_B_iso_or_equiv
si      0.000   0.499   0.000    1.00000    1.000
si      0.302   0.104   0.378    1.00000    1.000
o      0.342   0.261   0.583    1.00000    1.000
o      0.683   0.208   0.383    1.00000    1.000
o      0.131   0.270   0.865    1.00000    1.000
o      0.989   0.308   0.185    1.00000    1.000
_cell_measurement_wavelength    1.541874
_cell_measurement_radiation   'x-rays'
_exptl_crystal_density_diffrn    3.545000
loop_
_pd_peak_d_spacing
_pd_peak_intensity
     4.020600         64.27
     3.663881       1000.00
     3.453829          5.69
     3.439319        524.99
     3.320268        604.49
     2.906862        119.07
     2.708104        745.43
     2.619894        521.96
     2.560143        411.06
     2.237643        360.71
     2.139844        373.54
     2.103812        175.74
     2.013837         53.34
     2.010300         24.41
     1.939070          4.98
     1.924066        143.25
     1.908363        155.28
     1.864045         41.49
     1.831941          2.92
     1.822287         75.83
     1.813903         31.86
     1.800597          9.70
     1.768288         34.57
     1.762438         28.93
     1.737425         49.19
     1.726914        131.20
     1.724018         70.12
     1.719659         64.76
     1.667050        195.62
     1.660134         40.80
     1.611014         63.25
     1.586741          5.09
     1.573340         43.27
     1.534472        131.46
     1.488165         93.02
     1.470412         13.86
     1.468233         54.65
     1.453431        224.49
     1.433374         41.02
     1.422746        117.17
     1.414416          3.64
     1.406645         16.38
     1.390728         19.63
     1.386878         26.26
     1.384051         17.11
     1.354522          2.24
     1.354052         25.63
     1.346651         27.80
     1.340200         13.22
     1.324279          9.05
     1.314322         21.91
     1.313712         16.08
     1.309947         27.51
     1.290910         31.90
     1.283634         66.85
     1.280071         58.90
     1.276987         20.00
     1.276929         46.11
     1.263778         42.90
     1.261086         40.92
     1.258639          2.00
     1.256974         52.91
     1.249433         28.45
     1.243449         59.48
     1.242777         41.94
     1.242169          7.70
     1.240855         17.62
     1.229110          8.72
     1.221294         60.89
     1.207856         18.49
     1.205622         43.09
     1.204787         70.35
     1.199859         45.65
     1.190571         20.65
     1.187935          5.33
     1.184049         55.95
     1.168571          4.25
     1.151276          9.42
     1.150260         21.28
     1.146440         28.26
     1.143717         32.01
     1.130332         28.42
     1.123323         11.75
     1.120820          5.87
     1.118822          0.38
     1.115716         20.24
     1.112450         18.09
     1.108119         10.32
     1.107901         11.47
     1.106795         34.03
     1.106756         26.50
     1.105325         10.93
     1.096760         18.90
     1.086236         27.21
     1.081651          0.52
     1.069922          0.61
     1.069338          5.24
     1.067802         17.91
     1.067066         21.34
     1.058767         21.68
     1.057502          7.90
     1.053264          4.76
     1.051906         12.54
     1.050177          4.59
     1.043773          4.96
     1.042805          3.05
     1.022161          0.45
     1.022005         15.66
     1.021273          7.10
     1.019166          1.12
     1.017653         22.08
     1.015550          0.12
     1.006919         23.24
##############################################################################
###                            Comments                                    ###
##############################################################################
###   Diffraction pattern calculated by Match!. 
###   I/Ic calculated by Match!. 
###   Space group has been derived from given symmetry operations. 
##############################################################################


