##############################################################################
###               Crystal structure data exported by Match!                ###
##############################################################################
###                           Data published by:                           ###
###                                                                        ###
###               COD (Crystallography Open Database)
##############################################################################
data_2009595
_citation_journal_full    'Acta Crystallographica Section C'
_citation_journal_volume  '50(4)'
_citation_page_first  '482'
_citation_page_last   '484'
_citation_year  '1994'
_citation_title  '\b-Dicobalt pyrophosphate'
loop_
_publ_author_name
  'El Belghitti Alaoui'
  'Boukhari Ali'
  'Holt Elizabeth M.'
_chemical_formula_sum  'Co2 O7 P2'
_chemical_name_common  '\b-dicobalt diphosphate'
_symmetry_space_group_name_H-M 'A 1 2/m 1'
_space_group_IT_number 12
_space_group_crystal_system 'monoclinic'
loop_
_symmetry_equiv_pos_as_xyz
   'x, y, z'
   'x, y+0.5, z+0.5'
   '-x, y, -z'
   '-x, y+0.5, -z+0.5'
   '-x, -y, -z'
   '-x, -y+0.5, -z+0.5'
   'x, -y, z'
   'x, -y+0.5, z+0.5'
_cell_length_a        4.52400
_cell_length_b        8.52600
_cell_length_c        6.64000
_cell_angle_alpha    90.0000
_cell_angle_beta    102.5900
_cell_angle_gamma    90.0000
_cell_formula_units_Z 2
loop_
_atom_site_label
_atom_site_fract_x
_atom_site_fract_y
_atom_site_fract_z
_atom_site_occupancy
_atom_site_B_iso_or_equiv
co      0.500   -0.307   0.000    1.00000    11.841
p      -0.088   0.500   -0.287    1.00000    26.841
o      0.214   0.000   0.369    1.00000    58.424
o      0.728   -0.352   0.725    1.00000    6.309
o      0.000   0.000   0.000    1.00000    52.880
_cell_measurement_wavelength    1.541874
_cell_measurement_radiation   'x-rays'
_cell_measurement_temperature    298.000000
_exptl_crystal_density_diffrn    3.875000
_exptl_crystal_colour            'blue-purple'
loop_
_pd_peak_d_spacing
_pd_peak_intensity
     5.159233        206.77
     4.415220        492.15
     4.263000         89.79
     3.685298          0.29
     3.240170          6.83
     3.099337        721.98
     3.066798       1000.00
     2.935159        705.17
     2.602708        279.45
     2.579616        236.56
     2.417543         72.49
     2.376779         77.06
     2.333277         19.14
     2.207610         16.27
     2.170399         29.33
     2.160905        273.37
     2.131500          2.89
     2.093954         52.27
     2.075930         40.84
     2.068762         63.86
     2.043397        128.84
     1.960348         19.10
     1.919523          0.92
     1.913087          8.90
     1.842649         64.91
     1.780740         14.89
     1.761344         19.70
     1.753913          0.80
     1.724704          0.84
     1.719744         42.40
     1.710364          1.45
     1.705707         77.25
     1.663470         34.99
     1.649065         22.12
     1.640996          3.23
     1.620085         30.39
     1.615250         35.12
     1.586852          3.91
     1.573707         16.37
     1.549668         12.82
     1.533399          8.94
     1.531450          7.15
     1.517488         11.99
     1.515974          1.48
     1.514412          9.26
     1.487587          6.04
     1.484889          5.49
     1.475063          3.80
     1.471740          2.09
     1.467579          0.42
     1.465671          5.51
     1.423868          8.50
     1.421000          5.53
     1.391168          2.24
     1.387653          1.04
     1.386039          2.93
     1.380556          0.02
     1.357760          4.49
     1.354627          0.01
     1.352670          1.46
     1.350527          3.51
     1.345202          0.07
     1.338428          3.56
     1.332045         10.95
     1.331779          2.88
     1.311381          0.80
     1.308354          0.01
     1.301354          0.08
     1.300286          0.54
     1.289808          0.58
     1.287364          1.95
     1.281348          0.02
     1.278996          1.23
     1.255179          0.08
     1.241930          2.20
     1.235597          0.00
     1.235385          1.49
     1.231065          1.03
     1.229153          0.61
     1.228433          0.02
     1.219878          1.25
     1.219643          0.08
     1.211093          0.28
     1.208771          1.17
     1.207704          0.00
     1.200180          0.01
     1.197040          0.60
     1.194866          0.04
     1.192361          0.97
     1.188389          0.05
     1.183994          0.24
     1.182736          0.66
     1.179232          0.03
     1.167262          2.20
     1.166638          1.49
     1.165198          0.48
     1.144742          0.20
     1.143760          0.16
     1.138168          1.17
     1.129606          0.41
     1.122168          0.01
     1.119868          0.20
     1.106254          0.74
     1.103805          0.82
     1.099716          0.25
     1.089664          0.37
     1.086828          0.82
     1.085199          0.05
     1.081581          0.34
     1.080453          0.57
     1.080057          0.01
     1.074592          0.02
     1.074222          0.00
     1.073069          0.10
     1.070788          0.27
     1.070514          0.14
     1.068977          0.30
     1.068566          0.31
     1.068291          0.50
     1.066245          0.52
     1.066037          0.00
     1.065750          0.02
     1.064327          0.29
     1.060962          0.00
     1.057641          0.10
     1.049766          0.39
     1.046977          0.06
     1.045794          0.22
     1.042984          0.01
     1.037965          0.13
     1.035996          0.15
     1.034981          0.00
     1.034381          0.20
     1.033112          0.51
     1.031847          0.18
     1.024765          0.71
     1.022266          0.00
     1.021699          0.44
     1.020869          0.03
     1.020226          0.07
     1.017119          0.17
     1.012392          0.31
     1.012198          0.08
     1.007386          0.39
##############################################################################
###                            Comments                                    ###
##############################################################################
###   Diffraction pattern calculated by Match!. 
###   I/Ic calculated by Match!. 
##############################################################################


