##############################################################################
###               Crystal structure data exported by Match!                ###
##############################################################################
###                           Data published by:                           ###
###                                                                        ###
###               COD (Crystallography Open Database)
##############################################################################
data_9010409
_citation_journal_full    'American Mineralogist'
_citation_journal_volume  '93'
_citation_page_first  '584'
_citation_page_last   '590'
_citation_year  '2008'
_citation_title  'Structure and reactivity of synthetic Co-substituted goethitesLocality: syntheticSample: G7, 7 mol% Co'
loop_
_publ_author_name
  'Alvarez M.'
  'Sileo E. E.'
  'Rueda E. H.'
_chemical_formula_sum  'Co0.07 Fe0.93 H O2'
_chemical_name_mineral  'Goethite'
_symmetry_space_group_name_H-M 'P b n m'
_space_group_IT_number 62
_space_group_crystal_system 'orthorhombic'
loop_
_symmetry_equiv_pos_as_xyz
   'x, y, z'
   '-x, -y, z+0.5'
   'x+0.5, -y+0.5, -z'
   '-x+0.5, y+0.5, -z+0.5'
   '-x, -y, -z'
   'x, y, -z+0.5'
   '-x+0.5, y+0.5, z'
   'x+0.5, -y+0.5, z+0.5'
_cell_length_a        4.59010
_cell_length_b        9.93090
_cell_length_c        3.01480
_cell_angle_alpha    90.0000
_cell_angle_beta     90.0000
_cell_angle_gamma    90.0000
loop_
_atom_site_label
_atom_site_fract_x
_atom_site_fract_y
_atom_site_fract_z
_atom_site_occupancy
_atom_site_B_iso_or_equiv
fe      0.047   -0.145   0.250    0.93000    1.000
co      0.047   -0.145   0.250    0.07000    1.000
o      -0.294   0.198   0.250    1.00000    1.000
o      0.190   0.053   0.250    1.00000    1.000
_cell_measurement_wavelength    1.541874
_cell_measurement_radiation   'x-rays'
_exptl_crystal_density_diffrn    4.305000
loop_
_pd_peak_d_spacing
_pd_peak_intensity
     4.965450        110.70
     4.166569       1000.00
     3.370585        106.36
     2.684916        385.55
     2.576999        230.41
     2.519876         44.90
     2.482725        145.30
     2.442473        634.57
     2.295050         32.58
     2.247080         84.61
     2.236113         23.18
     2.183753        140.83
     2.083284          9.48
     2.005048         34.95
     1.916507         51.99
     1.886091          4.69
     1.822845          9.60
     1.796010        105.23
     1.768540         23.33
     1.713893        316.12
     1.685292         91.93
     1.655150         28.98
     1.598963         62.68
     1.559880        215.06
     1.557016          4.09
     1.512191          5.07
     1.507400         93.65
     1.501861         42.63
     1.471050         28.40
     1.462191         39.80
     1.450876         97.92
     1.442399          4.55
     1.417486         55.95
     1.388856         41.76
     1.383411          0.10
     1.376057          9.70
     1.364382         39.85
     1.355435         49.03
     1.351685         18.04
     1.344292          0.02
     1.342458         16.87
     1.315620         14.46
     1.314412         59.70
     1.302550          0.94
     1.288500         26.44
     1.261437         20.72
     1.259938          9.56
     1.249919          6.45
     1.241362          0.46
     1.240549         21.91
     1.236238          0.39
     1.226369          6.23
     1.221237          2.39
     1.212091          0.22
     1.206752          0.54
     1.198314          0.11
     1.195720         28.94
     1.177530          1.61
     1.161656          2.68
     1.147864         20.24
     1.147525          3.13
     1.139940         25.85
     1.124603          9.05
     1.123540         33.08
     1.123528          9.73
     1.120335          7.13
     1.118057          0.61
     1.114474         11.29
     1.113572          1.22
     1.091876         12.23
     1.084228          4.33
     1.083009          1.86
     1.072868          3.63
     1.067583          2.81
     1.066263          4.24
     1.063929         19.82
     1.052796         15.75
     1.049544         21.09
     1.048290          3.51
     1.041642          1.75
     1.040307          8.01
     1.026620         17.33
     1.021411         23.67
     1.020255         24.26
     1.010773         25.18
     1.007894         31.71
##############################################################################
###                            Comments                                    ###
##############################################################################
###   Diffraction pattern calculated by Match!. 
###   I/Ic calculated by Match!. 
###   Space group has been derived from given symmetry operations. 
##############################################################################


