##############################################################################
###               Crystal structure data exported by Match!                ###
##############################################################################
###                           Data published by:                           ###
###                                                                        ###
###               COD (Crystallography Open Database)
##############################################################################
data_4124050
_citation_journal_full    'Journal of the American Chemical Society'
_citation_journal_volume  '126'
_citation_page_first  '9769'
_citation_page_last   '9775'
_citation_year  '2004'
_citation_title  'Chemical evaluation of hypothetical uninodal zeolites'
loop_
_publ_author_name
  'Foster M.D.'
  'Klinowski J.'
  'Friedrichs O.D.'
  'Bell R.G.'
  'Paz F.A.A.'
_chemical_formula_sum  'O2 Si'
_chemical_name_common  'Silica'
_symmetry_space_group_name_H-M 'P 4/n n c'
_space_group_IT_number 126
_space_group_crystal_system 'tetragonal'
loop_
_symmetry_equiv_pos_as_xyz
   'x, y, z'
   '-x+0.5, -y+0.5, -z+0.5'
   '-y, x, z'
   '-x, -y, z'
   'y, -x, z'
   'y+0.5, -x+0.5, -z+0.5'
   '-y+0.5, x+0.5, -z+0.5'
   'x, -y, -z'
   '-x, y, -z'
   'y, x, -z'
   '-y, -x, -z'
   'x+0.5, y+0.5, -z+0.5'
   '-x+0.5, y+0.5, z+0.5'
   'x+0.5, -y+0.5, z+0.5'
   '-y+0.5, -x+0.5, z+0.5'
   'y+0.5, x+0.5, z+0.5'
_cell_length_a       10.33781
_cell_length_b       10.33781
_cell_length_c        4.79775
_cell_angle_alpha    90.0000
_cell_angle_beta     90.0000
_cell_angle_gamma    90.0000
_cell_formula_units_Z 16
loop_
_atom_site_label
_atom_site_fract_x
_atom_site_fract_y
_atom_site_fract_z
_atom_site_occupancy
_atom_site_B_iso_or_equiv
o      0.910   0.090   0.000    1.00000    1.000
si      0.898   0.202   0.220    1.00000    1.000
o      0.750   0.250   0.250    1.00000    1.000
o      0.893   0.107   0.500    1.00000    1.000
o      0.000   0.295   0.000    1.00000    1.000
_cell_measurement_wavelength    1.541874
_cell_measurement_radiation   'x-rays'
_exptl_crystal_density_diffrn    3.113000
loop_
_pd_peak_d_spacing
_pd_peak_intensity
     7.309935       1000.00
     5.168905        178.24
     4.351915         98.05
     3.654968          7.63
     3.329097         47.96
     3.269102        149.86
     2.798830         31.48
     2.701570        357.13
     2.584452          7.08
     2.461187          0.03
     2.436645         49.94
     2.398875          9.88
     2.311604          1.95
     2.279281          1.54
     2.222141          2.46
     2.175958        124.13
     2.129300          4.83
     2.082492        138.06
     2.027411         21.87
     2.005498          8.31
     1.934032         25.10
     1.898754          4.28
     1.867515          0.68
     1.839850         11.11
     1.827484          9.20
     1.782306          7.51
     1.772920         12.01
     1.758210          6.49
     1.733320          8.25
     1.722968         30.73
     1.709458          0.01
     1.664549         15.17
     1.663007          0.02
     1.634551         11.48
     1.601985          1.61
     1.580450          2.76
     1.566132          1.41
     1.548464         79.02
     1.547222         55.91
     1.530179          8.01
     1.511379          0.57
     1.498843          0.04
     1.467237          1.52
     1.461987         28.39
     1.453706          9.68
     1.450638         17.87
     1.436564         29.55
     1.433596          0.88
     1.425786          1.19
     1.411473          0.09
     1.399415          2.69
     1.398498         34.44
     1.396678          0.02
     1.386766          4.45
     1.373587          0.12
     1.361620          0.35
     1.357421          7.94
     1.350785         44.66
     1.348323          0.14
     1.339399          0.00
     1.315181         18.98
     1.306149          0.27
     1.296576          0.62
     1.292226          0.50
     1.275954          0.89
     1.264992          0.48
     1.255627          0.11
     1.253644         12.10
     1.248410         42.01
     1.238769          9.45
     1.230593         30.06
     1.228731         15.70
     1.221966          2.06
     1.218323          1.53
     1.212920          0.21
     1.201746          5.20
     1.199437         15.46
     1.187506          0.00
     1.183610          3.65
     1.181396          0.06
     1.173216          0.19
     1.168393          1.48
     1.165733          0.01
     1.164678          0.23
     1.161001          1.81
     1.158912          0.00
     1.155802          5.10
     1.143117         13.14
     1.141620          3.94
     1.139641          0.18
     1.137664          0.12
     1.136192          1.86
     1.130837          0.89
     1.126038          3.88
     1.123656         14.74
     1.117077          0.04
     1.111070          3.88
     1.110612          0.06
     1.109699          0.26
     1.106518          5.83
     1.091870          4.70
     1.089701          4.36
     1.087979          0.36
     1.086259          1.21
     1.084977          2.13
     1.082003          4.99
     1.080311          1.76
     1.079051          9.83
     1.076125          2.62
     1.074460          1.12
     1.068295          0.38
     1.067483          0.04
     1.064650          0.04
     1.062636         11.08
     1.061837          0.04
     1.044276          1.70
     1.041246         13.83
     1.037496          1.10
     1.034892          0.09
     1.033781         13.74
     1.032310          1.73
     1.030841          0.76
     1.025393          0.37
     1.019678          1.85
     1.017208          0.04
     1.015802          0.76
     1.013706          0.02
     1.010587         12.77
##############################################################################
###                            Comments                                    ###
##############################################################################
###   Diffraction pattern calculated by Match!. 
###   I/Ic calculated by Match!. 
###   Space group has been derived from given symmetry operations. 
##############################################################################


