##############################################################################
###               Crystal structure data exported by Match!                ###
##############################################################################
###                           Data published by:                           ###
###                                                                        ###
###               COD (Crystallography Open Database)
##############################################################################
data_1000102
_citation_journal_full    'Journal of Solid State Chemistry'
_citation_journal_volume  '92'
_citation_page_first  '273'
_citation_page_last   '285'
_citation_year  '1991'
_citation_title  'Synthesis, crystal structure, and magnetic properties of Co~3~(HPO~4~)~2~(OH)~2~ related to the mineral lazulite'
loop_
_publ_author_name
  'Pizarro J L'
  'Villeneuve G'
  'Hagenmuller P'
  'Le Bail A'
_chemical_formula_sum  'Co3 H4 O10 P2'
_chemical_name_common  'Cobalt bis(hydrogenphosphate) dihydroxide'
_symmetry_space_group_name_H-M 'P 1 21/n 1'
_space_group_IT_number 14
_space_group_crystal_system 'monoclinic'
loop_
_symmetry_equiv_pos_as_xyz
   'x, y, z'
   '-x+0.5, y+0.5, -z+0.5'
   '-x, -y, -z'
   'x+0.5, -y+0.5, z+0.5'
_cell_length_a        7.50240
_cell_length_b        7.48960
_cell_length_c        7.67160
_cell_angle_alpha    90.0000
_cell_angle_beta    121.8640
_cell_angle_gamma    90.0000
_cell_formula_units_Z 2
loop_
_atom_site_label
_atom_site_fract_x
_atom_site_fract_y
_atom_site_fract_z
_atom_site_occupancy
_atom_site_B_iso_or_equiv
co      0.223   0.273   0.979    1.00000    1.000
co      0.500   0.000   0.000    1.00000    1.000
p      0.998   0.117   0.264    1.00000    1.000
o      0.213   0.028   0.387    1.00000    1.000
o      0.676   0.486   0.359    1.00000    1.000
o      0.018   0.248   0.108    1.00000    1.000
o      0.550   0.735   0.105    1.00000    1.000
o      0.031   0.630   0.274    1.00000    1.000
h      -0.108   0.327   0.027    1.00000    1.000
h      0.105   0.556   0.234    1.00000    1.000
_cell_measurement_wavelength    1.541874
_cell_measurement_radiation   'x-rays'
_exptl_crystal_density_diffrn    3.653000
loop_
_pd_peak_d_spacing
_pd_peak_intensity
     6.629211        278.18
     4.964008        401.79
     4.915728         99.69
     4.853128         23.83
     3.744800         61.43
     3.685594         17.69
     3.413572        683.12
     3.351214        112.26
     3.314606        385.52
     3.306886       1000.00
     3.260536        112.64
     3.257759        145.04
     3.246740        347.94
     3.228508          2.75
     3.185907         36.13
     3.031040          0.06
     2.987387         35.47
     2.931691          7.42
     2.679317          1.31
     2.648845        142.67
     2.626791        148.65
     2.497347         32.35
     2.482004        125.66
     2.457864         75.68
     2.432982         84.57
     2.426564         64.88
     2.385256        105.16
     2.369114         54.03
     2.349617         21.62
     2.336349        145.30
     2.331258        154.92
     2.324481         29.12
     2.313952        186.93
     2.309124         13.34
     2.289532        117.27
     2.209737         34.75
     2.119415        212.38
     2.092269         94.28
     2.088572         61.23
     2.085908         10.36
     2.077710          4.99
     2.077662          3.94
     2.066968        128.48
     2.064521          5.08
     2.043363         36.33
     2.040202          7.19
     2.036890         29.37
     2.023404         36.39
     1.994167          0.11
     1.981582          0.01
     1.965070          3.55
     1.917532          3.31
     1.903111          4.17
     1.878740         19.10
     1.873632         96.13
     1.872400         86.55
     1.857616          5.26
     1.847474          5.94
     1.842797         22.23
     1.817620         10.77
     1.801904         13.42
     1.799566          0.01
     1.796443         40.56
     1.792531          0.38
     1.789428         30.20
     1.787626          1.20
     1.774356         11.48
     1.772254          0.11
     1.771255         23.25
     1.765603          2.83
     1.763568         38.75
     1.757488          8.04
     1.742412         26.21
     1.740348          2.60
     1.738784         63.63
     1.731914          2.60
     1.730982          0.85
     1.716621          1.37
     1.706786        242.78
     1.682571         15.38
     1.675607          5.81
     1.674946          0.31
     1.669328          0.06
     1.657303         89.11
     1.655890          2.23
     1.654669        116.80
     1.653443        123.08
     1.641531         16.19
     1.639075         20.38
     1.638576         29.40
     1.630268          6.47
     1.628879         32.77
     1.623370        191.67
     1.618160          1.80
     1.617709         67.78
     1.614254         32.70
     1.613242         61.18
     1.607005         10.53
     1.595494          0.01
     1.592954        104.03
     1.591671          9.65
     1.558102         32.69
     1.526581          9.04
     1.520729          0.55
     1.515520          5.85
     1.502152          0.95
     1.498551         17.34
     1.498096         28.93
     1.496889          0.11
     1.495825         55.24
     1.493694          2.84
     1.493129         16.69
     1.489167          8.40
     1.484397          1.97
     1.483851         26.54
     1.482633          4.09
     1.482576          7.46
     1.477351          0.86
     1.474026         20.58
     1.472248         22.55
     1.467860         17.67
     1.465845          5.05
     1.461085         10.45
     1.459837          1.09
     1.458169         13.78
     1.453442         51.64
     1.453251         15.87
     1.448876         25.80
     1.441960          9.71
     1.440423         13.15
     1.433973         19.96
     1.433887         18.46
     1.428528         17.29
     1.425397          0.97
     1.418134          2.08
     1.413633          9.59
     1.411597         13.44
     1.408310         12.70
     1.408010          7.30
     1.404542          7.63
     1.397322          2.11
     1.395267          3.87
     1.390910         27.72
     1.389959          8.92
     1.387688         16.83
     1.385312          6.67
     1.380757          0.11
     1.377536          0.60
     1.373621          8.89
     1.367908         15.66
     1.365006          1.49
     1.364372          2.57
     1.364190          6.05
     1.361083          0.01
     1.360949          4.10
     1.355564          3.46
     1.353744         10.04
     1.342877          3.39
     1.341905          2.91
     1.339658         18.07
     1.339080          0.08
     1.325842          5.17
     1.324422        129.34
     1.319263          0.00
     1.314621          5.29
     1.313395          6.89
     1.309154         22.21
     1.307401          1.09
     1.306159          0.22
     1.305544          6.01
     1.302390         10.61
     1.301140         15.47
     1.297988          0.32
     1.292974          2.71
     1.289756          3.06
     1.287121         18.03
     1.284567          1.19
     1.283816          3.45
     1.283806          1.07
     1.283782          8.64
     1.281431          0.87
     1.275552          4.47
     1.274742          0.58
     1.273998          0.22
     1.271416         20.42
     1.266370          0.77
     1.260950          7.67
     1.260131         14.82
     1.258138          0.08
     1.256307          0.03
     1.255107         16.22
     1.249821          5.27
     1.248674          9.82
     1.248267          0.92
     1.245655         11.52
     1.243394         14.27
     1.241002          3.64
     1.240753          3.05
     1.239895         20.34
     1.237270          0.13
     1.233080          0.86
     1.232071          8.11
     1.231673          0.51
     1.230719          8.65
     1.228932          0.12
     1.228531          3.48
     1.227481          3.18
     1.226709          4.00
     1.225970          3.03
     1.224982          4.01
     1.224114          7.03
     1.220725          0.35
     1.219326         20.60
     1.216491          4.63
     1.213686          0.67
     1.213282          8.11
     1.212843          3.00
     1.212330          6.89
     1.209806          6.59
     1.206421          0.11
     1.202322          0.02
     1.200755          5.68
     1.198057          7.53
     1.192628          2.86
     1.187122          5.08
     1.186974          6.11
     1.184911          3.02
     1.184557         43.12
     1.184288          3.87
     1.183174          0.41
     1.182297          4.83
     1.180443          0.42
     1.179871          0.38
     1.179610          6.61
     1.174808         15.53
     1.170958          8.11
     1.170027          0.94
     1.169979          3.02
     1.169188          0.90
     1.168174          8.51
     1.167320          2.06
     1.165629          0.12
     1.164141          1.05
     1.163206          3.63
     1.162357          3.94
     1.162240          2.52
     1.161935          0.26
     1.161765          5.69
     1.158196          5.82
     1.157332          0.95
     1.156976          3.34
     1.155972          0.18
     1.155205          9.20
     1.154562         34.24
     1.151845          0.52
     1.148200          6.33
     1.148130         12.78
     1.147386          0.00
     1.145875          0.00
     1.144766          0.37
     1.142222          0.06
     1.141680          1.02
     1.140152          1.83
     1.138417          2.23
     1.138024          0.07
     1.137857          1.84
     1.135563          4.05
     1.135040          0.17
     1.129413          5.69
     1.129166         13.91
     1.126166          0.74
     1.124116          0.14
     1.123530          0.07
     1.119858          0.35
     1.118233          4.41
     1.117071          0.04
     1.116775          3.35
     1.116556          1.33
     1.114829          0.84
     1.114496          2.19
     1.111276          0.69
     1.110621          1.11
     1.110086          4.39
     1.109743         15.50
     1.108594          5.32
     1.107888          8.53
     1.104869          4.84
     1.102585          1.44
     1.102295          0.01
     1.098322          6.06
     1.093573          0.23
     1.093039          3.97
     1.092530         23.80
     1.091534          5.48
     1.091240          3.43
     1.089885          0.69
     1.086845          0.84
     1.085920          0.66
     1.083245          3.75
     1.082247         11.35
     1.082060          3.45
     1.082040          0.99
     1.078526          1.91
     1.077528          1.07
     1.076169          1.10
     1.074682          4.54
     1.070210          0.59
     1.069573          0.38
     1.069179          6.03
     1.066739         16.09
     1.066062          0.05
     1.065699          0.38
     1.063086          8.91
     1.061969          2.63
     1.060275          0.07
     1.059708         32.08
     1.058825          0.65
     1.056274          0.02
     1.055802         16.98
     1.055761          0.86
     1.055424         13.13
     1.055170          0.84
     1.053509          1.25
     1.053429          0.03
     1.053302          0.91
     1.052536          2.46
     1.051452          3.44
     1.050776          7.81
     1.049694          2.38
     1.048979          8.93
     1.046466          7.39
     1.046135         16.15
     1.045892          0.29
     1.045672          3.39
     1.044286         13.08
     1.043645          2.90
     1.042954          0.02
     1.042551          0.03
     1.041679          0.29
     1.040584         13.35
     1.039094          1.97
     1.038855          0.35
     1.038831          0.00
     1.038672          1.63
     1.037454          2.29
     1.037115         12.00
     1.035809          5.65
     1.034081         10.73
     1.033484         14.44
     1.032260          7.07
     1.030586          6.22
     1.030556          2.80
     1.029947          2.92
     1.029770          0.03
     1.028827          1.05
     1.027521         11.33
     1.027169         10.65
     1.026555         16.37
     1.025325          1.57
     1.023445          6.03
     1.022676          0.14
     1.021847          8.22
     1.021770          3.62
     1.021681          8.60
     1.020851          0.68
     1.020101          2.47
     1.019080          6.01
     1.018869          0.50
     1.018445          4.86
     1.018210          0.68
     1.017947          0.14
     1.016523          0.12
     1.016377          3.79
     1.014273          0.04
     1.012709          2.26
     1.011702          0.25
     1.011702          9.27
     1.010347          0.24
     1.009056          7.86
     1.008825          0.59
     1.007040          0.98
##############################################################################
###                            Comments                                    ###
##############################################################################
###   Diffraction pattern calculated by Match!. 
###   I/Ic calculated by Match!. 
##############################################################################


