##############################################################################
###               Crystal structure data exported by Match!                ###
##############################################################################
###                           Data published by:                           ###
###                                                                        ###
###               COD (Crystallography Open Database)
##############################################################################
data_9008308
_citation_journal_full    'Zeitschrift fur Kristallographie'
_citation_journal_volume  '164'
_citation_page_first  '67'
_citation_page_last   '77'
_citation_year  '1983'
_citation_title  'Re-examination of "P2_1/a coesite"Locality: syntheticNote: z(O7), z(O8) correctedNote: This is not the structure of coesite, it is a model for a twin'
loop_
_publ_author_name
  'Sasaki S.'
  'Chen H. K.'
  'Prewitt C. T.'
  'Nakajima Y.'
_chemical_formula_sum  'O2 Si'
_chemical_name_mineral  'Coesite'
_symmetry_space_group_name_H-M 'C 1 2/c 1'
_space_group_IT_number 15
_space_group_crystal_system 'monoclinic'
loop_
_symmetry_equiv_pos_as_xyz
   'x, y, z'
   'x+0.5, y+0.5, z'
   '-x, y, -z+0.5'
   '-x+0.5, y+0.5, -z+0.5'
   '-x, -y, -z'
   '-x+0.5, -y+0.5, -z'
   'x, -y, z+0.5'
   'x+0.5, -y+0.5, z+0.5'
_cell_length_a        7.13700
_cell_length_b       12.37000
_cell_length_c        7.17400
_cell_angle_alpha    90.0000
_cell_angle_beta    120.3300
_cell_angle_gamma    90.0000
loop_
_atom_site_label
_atom_site_fract_x
_atom_site_fract_y
_atom_site_fract_z
_atom_site_occupancy
_atom_site_B_iso_or_equiv
si      0.326   0.357   0.391    0.50000    0.049
si      0.693   0.359   0.110    0.50000    0.799
si      0.780   0.404   0.738    0.50000    0.439
si      0.212   0.412   0.750    0.50000    0.390
o      0.231   0.250   0.253    0.50000    0.090
o      -0.015   0.366   0.752    0.50000    0.360
o      0.238   0.353   0.563    0.50000    1.000
o      0.588   0.374   0.521    0.50000    0.559
o      0.792   0.462   0.263    0.50000    1.000
o      0.224   0.461   0.224    0.50000    1.999
o      0.436   0.373   -0.012    0.50000    0.790
o      0.782   0.354   -0.057    0.50000    2.520
_cell_measurement_wavelength    1.541874
_cell_measurement_radiation   'x-rays'
_exptl_crystal_density_diffrn    2.920000
loop_
_pd_peak_d_spacing
_pd_peak_intensity
     6.185000         58.12
     5.547770        157.05
     5.514242         10.74
     4.375965        333.52
     3.445069        683.03
     3.434565         16.07
     3.426565        118.13
     3.421018        712.46
     3.103509        867.00
     3.096052        170.87
     3.092500       1000.00
     3.090844          1.93
     3.080084        966.77
     2.773885         75.29
     2.768557        134.58
     2.766651         32.22
     2.757121         22.04
     2.706279        337.00
     2.694573        107.93
     2.336995         42.17
     2.305199          5.43
     2.299220         29.80
     2.298174         32.24
     2.295773          2.73
     2.293158         37.89
     2.292028         26.93
     2.195739         14.23
     2.190610         27.53
     2.187982         58.33
     2.182325         33.37
     2.179147          0.86
     2.061667          0.40
     2.040658         12.79
     2.039263          4.67
     2.036571         95.31
     2.035120         14.73
     2.031568        244.73
     2.030912          0.85
     2.030128          0.63
     2.025670          3.97
     1.957890        130.89
     1.956093         46.35
     1.870427         15.52
     1.860139          7.60
     1.849257         13.86
     1.838081         63.78
     1.793493          0.60
     1.785137          3.99
     1.784182        175.19
     1.779931          1.96
     1.722535         30.10
     1.717282         45.39
     1.716774          1.73
     1.716016        113.90
     1.714280          1.04
     1.713282         11.56
     1.710509         30.66
     1.706792        112.33
     1.704308          5.07
     1.702440         16.85
     1.700027          9.76
     1.699604         10.89
     1.698632         18.52
     1.697572          3.18
     1.697483          4.10
     1.697114          7.49
     1.692203         89.88
     1.655721          0.34
     1.648572          1.04
     1.590000         52.82
     1.587991          8.06
     1.587136         25.14
     1.585211         46.49
     1.582848          1.09
     1.582466          3.03
     1.580054          1.41
     1.578185         55.84
     1.551754         16.61
     1.551462         81.55
     1.549426          0.28
     1.548026         36.12
     1.546250         47.71
     1.545422         43.71
     1.543563          1.33
     1.542657         34.34
     1.540042         41.26
     1.505107          5.72
     1.502107          8.74
     1.501704         13.88
     1.500184         89.14
     1.496763          3.04
     1.494412          1.23
     1.458655         48.24
     1.418776         96.72
     1.416242          0.26
     1.414047         26.12
     1.412634          1.84
     1.411569          0.57
     1.410193         10.04
     1.410120          1.80
     1.408791          1.82
     1.408740          6.19
     1.408529          2.35
     1.407351          9.67
     1.405718         60.40
     1.404567         10.73
     1.388353         78.92
     1.386942          0.95
     1.384278          0.00
     1.383989          4.98
     1.383325          5.78
     1.381892          1.11
     1.379945         63.92
     1.378561          3.08
     1.353139         63.51
     1.349127          0.61
     1.347358          7.65
     1.347286         82.68
     1.345315         26.82
     1.344631         95.62
     1.343732         10.35
     1.342084          6.14
     1.341938         11.03
     1.341460          0.20
     1.340994          5.53
     1.339695         10.49
     1.339425         43.23
     1.337463         33.93
     1.337294          1.87
     1.324239         32.08
     1.320021          3.24
     1.316390          0.23
     1.313331         74.71
     1.293992          0.56
     1.291503         40.76
     1.288101         27.14
     1.287177          1.54
     1.285854         21.85
     1.285257         38.87
     1.283450          3.70
     1.282195         21.09
     1.282079          0.40
     1.278992         43.59
     1.241613          2.79
     1.239813         12.39
     1.237909         42.36
     1.237511         11.32
     1.237000          8.43
     1.235213          1.09
     1.235199          2.85
     1.233815          6.08
     1.233757          6.63
     1.232817          0.09
     1.232609          0.01
     1.231146          4.75
     1.230227          4.92
     1.229301          6.62
     1.228213         10.47
     1.227445          1.61
     1.225968         14.92
     1.214318         51.40
     1.213032         10.01
     1.190115          1.15
     1.188699         19.13
     1.187308         12.04
     1.186838         26.52
     1.185945         10.46
     1.185128          0.32
     1.184334          0.05
     1.184296          0.96
     1.184140         17.98
     1.181900         22.85
     1.181198         14.90
     1.180465          1.46
     1.174365          1.33
     1.173150         15.54
     1.172076         31.34
     1.171101         19.26
     1.169998          6.05
     1.168766         13.85
     1.168497         11.22
     1.168051         32.80
     1.167301          7.11
     1.167004         24.71
     1.166803          5.28
     1.166208          3.50
     1.164228          0.29
     1.153751          1.83
     1.152600          2.11
     1.149663          0.42
     1.149610          0.01
     1.149433         26.79
     1.149087          0.00
     1.148707          6.85
     1.148356         14.55
     1.147886          2.14
     1.147034         15.54
     1.146579          2.38
     1.146014          0.05
     1.144855         36.72
     1.144135          2.87
     1.142188          0.73
     1.140339          2.06
     1.132727         16.28
     1.125878         30.97
     1.111156         10.48
     1.110168          3.83
     1.109564          0.63
     1.109554          0.01
     1.109101          0.25
     1.106613          4.77
     1.106532          2.81
     1.106263          3.84
     1.106139         11.20
     1.105273         17.45
     1.103923          3.53
     1.102848          7.86
     1.101762          4.40
     1.097869          3.49
     1.096877          1.00
     1.095979          2.89
     1.095305          0.01
     1.094485         10.78
     1.094299          0.79
     1.093991          0.09
     1.092413         12.19
     1.091684          0.33
     1.091197          0.05
     1.091162          0.36
     1.089771          2.46
     1.089574          3.13
     1.076941          0.06
     1.076531          0.80
     1.075070          2.47
     1.074530          0.27
     1.074452          0.77
     1.074103          8.46
     1.073909          0.07
     1.073048          9.74
     1.072372          5.63
     1.072314          4.88
     1.072247          1.60
     1.072195          0.06
     1.070861          2.10
     1.070439         14.35
     1.069918         14.54
     1.068382          9.16
     1.061614         20.28
     1.061041          0.55
     1.047759          0.58
     1.047741          0.63
     1.044131          4.92
     1.042314          0.02
     1.034503          1.81
     1.032017         21.27
     1.030833          0.10
     1.030281         11.98
     1.026695          0.02
     1.020429          7.46
     1.020329          0.40
     1.019631          8.91
     1.019365          0.26
     1.018285         15.63
     1.017944          0.40
     1.017631          8.54
     1.017560          0.09
     1.017036          8.27
     1.016839          7.98
     1.016572          5.04
     1.015807          9.36
     1.015784         22.69
     1.015459          2.70
     1.015456         16.44
     1.015064          0.00
     1.014365          0.16
     1.014087          1.08
     1.013757         22.55
     1.013576          3.08
     1.013405         13.70
     1.013185          8.14
     1.013055          0.68
     1.012957          0.51
     1.012835          0.19
     1.011965          1.51
     1.010810          8.66
     1.010654          8.33
     1.009818          2.84
     1.007904          9.59
##############################################################################
###                            Comments                                    ###
##############################################################################
###   Diffraction pattern calculated by Match!. 
###   I/Ic calculated by Match!. 
###   Space group has been derived from given symmetry operations. 
##############################################################################


