##############################################################################
###               Crystal structure data exported by Match!                ###
##############################################################################
###                           Data published by:                           ###
###                                                                        ###
###               COD (Crystallography Open Database)
##############################################################################
data_1200005
_citation_journal_full    'European Journal of Solid State Inorganic Chemistry'
_citation_journal_volume  '33'
_citation_page_first  '1223'
_citation_page_last   '1231'
_citation_year  '1996'
_citation_title  'Structural studies of transition aluminas. Theta alumina'
loop_
_publ_author_name
  'Husson E'
  'Repelin Y'
_chemical_formula_sum  'Al2 O3'
_chemical_name_common  'Aluminium oxide - $-theta'
_symmetry_space_group_name_H-M 'C 1 2/m 1'
_space_group_IT_number 12
_space_group_crystal_system 'monoclinic'
loop_
_symmetry_equiv_pos_as_xyz
   'x, y, z'
   'x+0.5, y+0.5, z'
   '-x, y, -z'
   '-x+0.5, y+0.5, -z'
   '-x, -y, -z'
   '-x+0.5, -y+0.5, -z'
   'x, -y, z'
   'x+0.5, -y+0.5, z'
_cell_length_a       11.79500
_cell_length_b        2.91000
_cell_length_c        5.62100
_cell_angle_alpha    90.0000
_cell_angle_beta    103.7900
_cell_angle_gamma    90.0000
_cell_formula_units_Z 4
loop_
_atom_site_label
_atom_site_fract_x
_atom_site_fract_y
_atom_site_fract_z
_atom_site_occupancy
_atom_site_B_iso_or_equiv
o      0.163   0.000   0.123    1.00000    1.000
o      0.489   0.000   0.261    1.00000    1.000
o      0.830   0.000   0.439    1.00000    1.000
al      0.101   0.000   0.794    1.00000    1.000
al      0.352   0.000   0.687    1.00000    1.000
_cell_measurement_wavelength    1.541874
_cell_measurement_radiation   'x-rays'
_exptl_crystal_density_diffrn    3.614000
loop_
_pd_peak_d_spacing
_pd_peak_intensity
     5.727510          0.29
     5.458980        161.31
     4.527114        131.52
     3.551382         18.95
     2.863755        956.97
     2.828462        546.73
     2.820415         27.34
     2.729600        388.18
     2.729490        838.02
     2.567954        205.23
     2.447840       1000.00
     2.318781        324.21
     2.314476        481.39
     2.263557          7.37
     2.263368         53.36
     2.250950        577.48
     2.028159        137.41
     2.021585        561.00
     1.953035         91.56
     1.909170        230.27
     1.906361         45.73
     1.906285         58.89
     1.867445          3.64
     1.819660          6.47
     1.813536         44.68
     1.800083        122.40
     1.775843         48.56
     1.775691        116.05
     1.734325         76.17
     1.681558          7.62
     1.651589          0.09
     1.651491          0.02
     1.625996          7.47
     1.621599        187.45
     1.571641         81.16
     1.542897        432.59
     1.509038         21.60
     1.489734        325.00
     1.473927        108.17
     1.456008        137.85
     1.455000        396.21
     1.431877         17.43
     1.426366         85.17
     1.419522          0.17
     1.414231         12.68
     1.414123         16.72
     1.410208          0.01
     1.405919          3.37
     1.405250        263.54
     1.392888         10.48
     1.388071        417.63
     1.387984        446.69
     1.385214          4.39
     1.364800          0.81
     1.364745          4.82
     1.346383          1.73
     1.339539         29.58
     1.314836         17.91
     1.310485         55.50
     1.297175        120.40
     1.293846         60.47
     1.283977         56.58
     1.283966        112.06
     1.283761          2.36
     1.261594         47.83
     1.261507         39.60
     1.257788          4.75
     1.257766          0.77
     1.256468        141.30
     1.232459         58.42
     1.223950          1.37
     1.223920          0.56
     1.201211          4.31
     1.201154          5.71
     1.194947          1.27
     1.183794         14.67
     1.178992          1.00
     1.174459         29.97
     1.168503          0.36
     1.168434          0.75
     1.166797         20.35
     1.166117          0.45
     1.159467         22.44
     1.159390         38.87
     1.157238         40.04
     1.147750          0.35
     1.145502          0.09
     1.136386          0.88
     1.131778         12.49
     1.131684          6.88
     1.125475         17.46
     1.125436         38.86
     1.122844          5.96
     1.114680         21.02
     1.112227          3.30
     1.107726         41.80
     1.107652          9.14
     1.100288          3.38
     1.096615          0.12
     1.094094          9.60
     1.092681          0.44
     1.091796          0.70
     1.084273          4.30
     1.070952          6.50
     1.063254         24.14
     1.047573         13.14
     1.047423         12.32
     1.038905         20.58
     1.035467         55.75
     1.028344         23.77
     1.024028          0.50
     1.022254          7.32
     1.020567          9.96
     1.014119          7.70
     1.014080          9.44
     1.013927         11.36
     1.010792        141.51
##############################################################################
###                            Comments                                    ###
##############################################################################
###   Diffraction pattern calculated by Match!. 
###   I/Ic calculated by Match!. 
###   Space group has been derived from given symmetry operations. 
##############################################################################


