##############################################################################
###               Crystal structure data exported by Match!                ###
##############################################################################
###                           Data published by:                           ###
###                                                                        ###
###               COD (Crystallography Open Database)
##############################################################################
data_2219730
_citation_journal_full    'Acta Crystallographica Section E'
_citation_journal_volume  '64(10)'
_citation_page_first  'i67'
_citation_page_last   'i68'
_citation_year  '2008'
_citation_title  'Co~3~(PO~4~)~2~&'
loop_
_publ_author_name
  'Lee Young Hoon'
  'Clegg Jack K.'
  'Lindoy Leonard F.'
  'Lu G. Q. Max'
  'Park Yu-Chul'
  'Kim Yang'
_chemical_formula_sum  'Co3 H8 O12 P2'
_chemical_name_common  'Tricobalt(II) bis[orthophosphate(V)] tetrahydrate'
_symmetry_space_group_name_H-M 'P n m a'
_space_group_IT_number 62
_space_group_crystal_system 'orthorhombic'
loop_
_symmetry_equiv_pos_as_xyz
   'x, y, z'
   '-x+0.5, -y, z+0.5'
   'x+0.5, -y+0.5, -z+0.5'
   '-x, y+0.5, -z'
   '-x, -y, -z'
   'x+0.5, y, -z+0.5'
   '-x+0.5, y+0.5, z+0.5'
   'x, -y+0.5, z'
_cell_length_a       10.60400
_cell_length_b       18.28800
_cell_length_c        5.00700
_cell_angle_alpha    90.0000
_cell_angle_beta     90.0000
_cell_angle_gamma    90.0000
_cell_formula_units_Z 4
loop_
_atom_site_label
_atom_site_fract_x
_atom_site_fract_y
_atom_site_fract_z
_atom_site_occupancy
_atom_site_B_iso_or_equiv
co      0.643   0.001   0.207    1.00000    0.317
co      0.261   0.250   0.429    1.00000    0.661
p      0.397   0.095   0.276    1.00000    0.969
o      0.526   0.079   0.146    1.00000    1.594
o      0.303   0.040   0.143    1.00000    1.167
o      0.360   0.173   0.214    1.00000    1.586
o      0.393   0.250   0.744    1.00000    1.223
o      0.115   0.250   0.141    1.00000    1.515
o      0.164   0.169   0.659    1.00000    1.554
o      0.400   0.081   0.576    1.00000    2.455
h      0.098   0.161   0.553    1.00000    3.709
h      0.219   0.139   0.739    1.00000    3.709
h      0.132   0.280   0.005    0.50000    3.709
h      0.044   0.231   0.204    0.50000    3.709
h      0.403   0.296   0.800    0.50000    3.709
h      0.366   0.210   0.830    0.50000    3.709
_cell_measurement_wavelength    1.541874
_cell_measurement_radiation   'x-rays'
_cell_measurement_temperature    150.000000
_exptl_crystal_density_diffrn    3.000000
_exptl_crystal_colour            'purple'
loop_
_pd_peak_d_spacing
_pd_peak_intensity
     9.144000        578.54
     5.302000        175.89
     5.092309        216.62
     4.829272        268.08
     4.586726         92.41
     4.572000        430.94
     4.527646         18.16
     4.394959        374.00
     4.057492         49.41
     4.000551        233.30
     3.869174        138.94
     3.640307         29.22
     3.634772         56.77
     3.570263          1.02
     3.462455        308.28
     3.382141        399.58
     3.217096          5.57
     3.125442         94.57
     3.048000          3.57
     3.010705         39.05
     2.953496         78.39
     2.887624          8.78
     2.852287         41.66
     2.847849       1000.00
     2.845196         28.18
     2.753584         29.28
     2.651000        174.07
     2.642470         29.65
     2.623579          0.79
     2.609647        288.02
     2.580178         33.21
     2.546154        147.87
     2.528442         69.24
     2.503500        161.41
     2.441443         10.19
     2.436517          5.34
     2.431070          5.39
     2.415176          0.38
     2.414636        131.31
     2.354368          0.50
     2.343510         15.45
     2.342876          1.84
     2.336982         73.92
     2.323884          0.50
     2.316224         14.15
     2.293363          4.67
     2.286000         57.62
     2.269563         63.46
     2.266433         13.74
     2.263823          1.98
     2.262871         66.23
     2.262490         41.49
     2.246675         27.60
     2.197479         42.18
     2.195854          9.71
     2.186922         23.52
     2.150235         81.95
     2.146489         14.85
     2.122525          0.38
     2.122211          6.61
     2.099195         40.47
     2.096263        100.99
     2.085054          5.97
     2.042978          1.01
     2.040647          0.04
     2.030348         13.62
     2.028746          1.01
     2.027786          6.86
     2.000276         92.82
     1.993820        105.50
     1.972845         21.94
     1.952844          9.87
     1.941804         26.02
     1.937329         21.57
     1.937090          0.90
     1.935936        215.38
     1.934587         61.75
     1.924945          0.11
     1.909777         12.39
     1.903173          4.05
     1.897424         10.30
     1.882855          1.05
     1.865231          5.83
     1.860805          2.69
     1.859747         14.10
     1.857532          6.98
     1.853857          2.18
     1.828800          8.08
     1.820154        134.08
     1.817386         57.63
     1.811205          4.49
     1.795882          5.95
     1.792339          0.49
     1.785131          8.04
     1.783607          0.30
     1.781869          1.47
     1.774296         28.49
     1.767333          0.18
     1.759138          1.91
     1.744245          0.14
     1.744070          0.02
     1.735220         39.31
     1.731228          8.90
     1.728845         15.06
     1.722682         26.33
     1.710878          4.09
     1.697436         15.90
     1.697034         26.01
     1.695697          0.96
     1.691071         63.53
     1.688112         11.07
     1.667119         72.08
     1.666562         13.08
     1.662093          1.52
     1.661791         34.32
     1.659685          6.50
     1.648704         16.34
     1.648459          2.94
     1.644304          4.85
     1.642044          0.30
     1.639553         24.15
     1.636184         26.18
     1.634173         24.75
     1.629533          0.12
     1.622540         18.55
     1.618207          2.75
     1.612735          6.55
     1.611909          0.00
     1.609757         36.43
     1.609346          5.82
     1.608548          2.17
     1.607569          0.07
     1.593448         57.47
     1.591987          0.64
     1.591523          2.41
     1.591303          2.93
     1.586383          0.03
     1.585989         15.02
     1.577838          0.01
     1.568394         10.44
     1.565782        111.98
     1.564165         15.12
     1.564040          6.00
     1.562721          7.66
     1.560656         18.53
     1.560531          3.37
     1.550943          9.16
     1.545012          1.72
     1.540328          4.75
     1.535071          7.91
     1.528909         89.43
     1.525476          3.29
     1.524000         84.02
     1.523303          2.49
     1.518391         12.83
     1.512293          0.18
     1.512179          3.36
     1.509215         19.43
     1.505352         61.89
     1.504102          1.25
     1.503451         76.35
     1.503060          5.98
     1.493446          4.84
     1.489069         14.41
     1.484821          6.20
     1.479844          2.53
     1.476748         43.17
     1.464986          3.97
     1.464693          2.39
     1.463851          1.01
     1.462633          6.43
     1.462257         23.89
     1.459712         12.64
     1.450149         19.34
     1.449949          7.15
     1.445413          5.11
     1.444372          0.26
     1.443812         11.17
     1.441608         36.16
     1.440805          6.35
     1.440707          1.28
     1.439333          9.38
     1.433152         21.66
     1.432057          0.01
     1.429267         26.25
     1.426143          1.59
     1.423925         50.93
     1.422598          4.96
     1.412398         12.50
     1.411104         38.47
     1.410597          0.97
     1.408480          0.11
     1.408205         22.16
     1.408021          5.00
     1.406495          2.06
     1.405779         19.05
     1.405035          7.22
     1.404944          0.03
     1.398204          0.27
     1.395845          7.88
     1.395116          2.48
     1.394284          0.11
     1.382111          3.72
     1.376792         28.50
     1.375949          1.55
     1.375693          0.05
     1.373304          0.15
     1.362608         17.66
     1.359722          4.39
     1.359474          9.03
     1.355856          6.24
     1.355774          0.00
     1.354330          8.70
     1.352497         46.57
     1.349473          2.03
     1.347901          8.14
     1.347807          0.00
     1.346682         38.61
     1.343417          9.80
     1.342966          0.16
     1.340005          0.20
     1.337207          0.55
     1.334857          0.17
     1.333517         12.72
     1.325500         14.33
     1.322032          8.10
     1.321235         20.24
     1.320781          3.76
     1.317575          4.84
     1.312197          0.08
     1.311789          0.00
     1.311567          3.37
     1.309349          0.15
     1.308207          0.14
     1.306835          1.07
     1.306408         25.54
     1.306286          0.02
     1.304824         14.15
     1.301768         16.69
     1.298280          0.00
     1.296057          1.79
     1.295235          3.62
     1.292814          0.51
     1.292069         14.23
     1.290089         13.46
     1.289725         16.97
     1.289513          3.48
     1.288599          0.06
     1.283231          2.39
     1.282225          0.75
     1.281498          0.60
     1.281360         16.12
     1.280290          3.53
     1.278227          4.69
     1.277506          2.91
     1.273077         10.10
     1.270868          6.22
     1.268962         34.27
     1.268357          3.66
     1.267788          4.42
     1.267721          0.77
     1.265918          5.23
     1.265851          0.01
     1.264675          3.22
     1.264221          0.95
     1.263680          3.24
     1.260717          0.79
     1.259490          6.30
     1.255093          0.90
     1.253958          0.09
     1.253181          4.39
     1.251750          0.97
     1.246924          1.62
     1.246192          4.45
     1.243119          0.45
     1.242646          0.75
     1.242457          6.49
     1.240257          0.25
     1.240184          2.44
     1.234592          0.04
     1.233820          7.93
     1.231808          0.59
     1.231788         42.79
     1.229522         46.17
     1.227542          0.01
     1.224544          2.25
     1.224424          3.23
     1.221629          0.15
     1.221559          2.01
     1.220722          7.46
     1.218288          0.62
     1.218258          0.15
     1.218050          1.37
     1.215564          5.20
     1.215535          0.22
     1.213436          0.09
     1.211893         19.86
     1.211591          0.10
     1.210948          0.01
     1.210773          2.27
     1.209299          0.01
     1.207588          0.62
     1.207318          0.12
     1.206058          1.52
     1.204763          5.35
     1.202890          7.09
     1.201558          2.32
     1.201444          0.00
     1.200761          0.26
     1.199568          0.16
     1.194860          4.46
     1.194636          0.30
     1.192708          0.01
     1.190170          0.23
     1.190088         19.03
     1.188190          0.03
     1.184588          0.00
     1.182065          3.75
     1.181225          0.17
     1.180279          1.97
     1.179945         14.77
     1.177873          3.05
     1.177497          0.01
     1.177264          0.97
     1.177184          0.04
     1.177015          0.15
     1.176997          0.00
     1.176961          0.39
     1.172831          6.67
     1.172152          0.00
     1.171755          7.02
     1.171438          3.10
     1.170673          0.12
     1.170242          0.98
     1.169042          0.14
     1.168491         41.46
     1.164026          3.28
     1.161942          9.38
     1.161041          1.68
     1.159757          0.19
     1.159604          0.85
     1.158648          1.13
     1.158444          1.17
     1.158112          3.77
     1.157908          1.40
     1.156084          3.22
     1.155831          0.03
     1.154152          0.01
     1.151710          1.33
     1.151266          1.77
     1.151066         10.15
     1.150440          1.52
     1.150390          4.25
     1.149840          2.31
     1.146896          3.11
     1.146682         11.09
     1.144648          1.87
     1.143000          4.36
     1.142510          5.93
     1.141441          2.42
     1.140929          5.99
     1.137980          0.91
     1.137625          0.54
     1.136177          0.48
     1.134782          0.50
     1.133216          0.00
     1.131912          8.32
     1.131435          3.97
     1.131245          0.33
     1.129750          0.41
     1.127459          1.46
     1.127380         13.09
     1.127122          1.18
     1.124660          3.32
     1.123338          3.98
     1.123190          6.47
     1.122957          0.15
     1.122523          1.10
     1.121711          5.95
     1.119607          0.62
     1.119123          4.35
     1.117836          2.60
     1.117744         13.01
     1.117461          0.01
     1.117331          4.24
     1.115617          0.00
     1.113365          6.92
     1.113071          2.05
     1.112889          1.27
     1.112430          0.90
     1.110182          0.43
     1.109441          0.29
     1.108231          0.35
     1.107673          0.95
     1.104118          2.17
     1.103190          1.37
     1.101957          0.54
     1.100881          1.07
     1.100655          0.43
     1.100545          4.40
     1.100524          0.18
     1.100370          3.61
     1.098740          1.32
     1.097927          2.48
     1.094357          3.33
     1.093461          6.03
     1.092753          0.93
     1.092710          0.00
     1.092089          1.64
     1.090509         36.84
     1.090317          0.67
     1.090119          0.59
     1.089403          3.54
     1.085768          0.01
     1.083859          0.19
     1.081524          1.18
     1.081316          2.15
     1.077987          8.02
     1.076406          2.16
     1.076120          1.85
     1.075642          0.02
     1.075356          0.20
     1.075118          0.02
     1.074989          3.63
     1.073427          0.00
     1.073421          1.31
     1.073245          1.43
     1.072413          0.00
     1.072365          4.84
     1.071799          3.38
     1.070574          4.37
     1.070150          0.10
     1.068905          0.72
     1.066060          7.11
     1.065808          0.45
     1.064254          0.54
     1.062771          0.13
     1.061675          0.01
     1.061518          1.55
     1.061263          0.03
     1.061106          0.00
     1.060419          0.88
     1.060400          1.41
     1.058888          3.41
     1.058622          1.22
     1.057435          1.22
     1.054282          0.57
     1.054167          3.51
     1.053341          0.24
     1.052688         10.83
     1.051763          0.03
     1.050485          7.91
     1.050472          6.38
     1.050162          0.67
     1.050124          0.88
     1.049597          0.28
     1.049408         18.37
     1.049218         26.11
     1.048510          7.63
     1.048131          7.28
     1.046942          0.02
     1.046627          3.15
     1.044861          1.15
     1.044712          1.03
     1.042527          1.34
     1.041814          9.13
     1.039758          0.32
     1.038621          0.68
     1.038211         10.25
     1.037978          2.47
     1.037391          1.24
     1.036420          0.68
     1.036310          1.00
     1.035926          4.26
     1.035726          0.01
     1.034795          7.80
     1.034195          1.92
     1.034014          2.66
     1.032980         12.75
     1.032956          6.71
     1.031661          0.37
     1.031354         13.47
     1.030778          3.39
     1.030724          0.01
     1.029718          0.00
     1.029049          0.77
     1.028101          5.62
     1.028089         28.38
     1.027269          0.47
     1.025115          1.00
     1.023867          4.08
     1.023474          1.40
     1.023250          6.30
     1.022688          5.72
     1.022161          0.35
     1.021489          0.02
     1.020387          1.33
     1.020323          0.00
     1.019899          1.57
##############################################################################
###                            Comments                                    ###
##############################################################################
###   Diffraction pattern calculated by Match!. 
###   I/Ic calculated by Match!. 
##############################################################################


