##############################################################################
###               Crystal structure data exported by Match!                ###
##############################################################################
###                           Data published by:                           ###
###                                                                        ###
###               COD (Crystallography Open Database)
##############################################################################
data_2108028
_citation_journal_full    'Acta Crystallographica Section B'
_citation_journal_volume  '73(1)'
_citation_page_first  '27'
_citation_page_last   '32'
_citation_year  '2017'
_citation_title  'Deformations of the \a-Fe~2~O~3~ rhombohedral lattice across the N\'eeltemperature'
loop_
_publ_author_name
  'Fabrykiewicz P.'
  'Stekiel M.'
  'Sosnowska I.'
  'Przenios\/lo R.'
_chemical_formula_sum  'Fe2 O3'
_chemical_name_mineral  'Hematite'
_chemical_name_common  'Iron(III) oxide'
_symmetry_space_group_name_H-M 'C 1 2/c 1'
_space_group_IT_number 15
_space_group_crystal_system 'monoclinic'
loop_
_symmetry_equiv_pos_as_xyz
   'x, y, z'
   'x+0.5, y+0.5, z'
   '-x, y, -z+0.5'
   '-x+0.5, y+0.5, -z+0.5'
   '-x, -y, -z'
   '-x+0.5, -y+0.5, -z'
   'x, -y, z+0.5'
   'x+0.5, -y+0.5, z+0.5'
_cell_length_a        9.68920
_cell_length_b        5.08737
_cell_length_c       13.84868
_cell_angle_alpha    90.0000
_cell_angle_beta    162.3508
_cell_angle_gamma    90.0000
_cell_formula_units_Z 4
loop_
_atom_site_label
_atom_site_fract_x
_atom_site_fract_y
_atom_site_fract_z
_atom_site_occupancy
_atom_site_B_iso_or_equiv
fe      0.000   0.000   0.144    1.00000    1.034
o      0.000   0.313   0.250    1.00000    0.805
o      -0.449   -0.155   -0.049    1.00000    0.805
_cell_measurement_wavelength    1.541874
_cell_measurement_radiation   'x-rays'
_cell_measurement_temperature    1053.000000
_exptl_crystal_density_diffrn    5.124000
loop_
_pd_peak_d_spacing
_pd_peak_intensity
     4.198735          0.26
     3.717948        147.91
     3.717051        266.07
     2.722419       1000.00
     2.722079        476.84
     2.543982        715.33
     2.543685        359.29
     2.344771          0.07
     2.308113         25.60
     2.228236         87.26
     2.227856         86.75
     2.227846         92.53
     2.175587          0.28
     2.099379          7.23
     2.099368         18.71
     1.858974        183.42
     1.858526        353.43
     1.804867          0.01
     1.724219          0.07
     1.709574        205.26
     1.709312        204.03
     1.709231        204.55
     1.653503          5.93
     1.653341          1.54
     1.619365          8.43
     1.619143         11.89
     1.619063         10.29
     1.611341         42.27
     1.611125         82.26
     1.500883        136.17
     1.500713        147.22
     1.500704        139.87
     1.471863          0.06
     1.468826        132.25
     1.468654        272.92
     1.427438          1.61
     1.427136          1.25
     1.427132          0.76
     1.399578          0.00
     1.399484          0.00
     1.361209         29.34
     1.361040         13.49
     1.321188         91.18
     1.321070         47.46
     1.316749          7.93
     1.316590          8.36
     1.316514          7.80
     1.274177          0.66
     1.274032          0.42
     1.273966          1.00
     1.271991         60.58
     1.271842         28.86
     1.239316          5.08
     1.239148          9.13
     1.239055          5.17
     1.239017          9.22
     1.226352          4.36
     1.226226          4.30
     1.226156          5.01
     1.217419          0.37
     1.217291          0.12
     1.217225          0.30
     1.210484          0.01
     1.203478          6.59
     1.203474          7.80
     1.203380          5.47
     1.200321         17.94
     1.200080         18.92
     1.200053         20.13
     1.172609         22.30
     1.172386         45.84
     1.154057          1.24
     1.152516         36.16
     1.152302         33.44
     1.152272         38.78
     1.118117          0.08
     1.118024          0.26
     1.118018          0.19
     1.114118         31.41
     1.113928         31.29
     1.113923         32.87
     1.098033          0.01
     1.093121          0.01
     1.087977          3.88
     1.087794          6.00
     1.064904         35.15
     1.064799         34.51
     1.064719         32.63
     1.062471          0.00
     1.062348          0.00
     1.051052          3.04
     1.050951          2.98
     1.050892          2.99
     1.049689          9.78
     1.049684         22.68
     1.039844          0.19
     1.039610          0.06
     1.039608          0.16
     1.035475          0.00
     1.023482          0.01
     1.008192          0.71
     1.008191          0.25
     1.008081          0.24
##############################################################################
###                            Comments                                    ###
##############################################################################
###   Diffraction pattern calculated by Match!. 
###   I/Ic calculated by Match!. 
###   Space group has been derived from given symmetry operations. 
##############################################################################


