##############################################################################
###               Crystal structure data exported by Match!                ###
##############################################################################
###                           Data published by:                           ###
###                                                                        ###
###               COD (Crystallography Open Database)
##############################################################################
data_9006295
_citation_journal_full    'Physics and Chemistry of Minerals'
_citation_journal_volume  '21'
_citation_page_first  '269'
_citation_page_last   '284'
_citation_year  '1994'
_citation_title  'Framework silica structures generated using simulated annealingwith a potential energy function based on an H6Si2O7 moleculeSample: 12'
loop_
_publ_author_name
  'Boisen M. B.'
  'Gibbs G. V.'
  'Bukowinski M. S. T.'
_chemical_formula_sum  'O2 Si'
_chemical_name_common  'Silica'
_symmetry_space_group_name_H-M 'C 1 2 1'
_space_group_IT_number 5
_space_group_crystal_system 'monoclinic'
loop_
_symmetry_equiv_pos_as_xyz
   'x, y, z'
   'x+0.5, y+0.5, z'
   '-x, y, -z'
   '-x+0.5, y+0.5, -z'
_cell_length_a        6.85130
_cell_length_b        7.37610
_cell_length_c        6.70850
_cell_angle_alpha    90.0000
_cell_angle_beta    101.9184
_cell_angle_gamma    90.0000
loop_
_atom_site_label
_atom_site_fract_x
_atom_site_fract_y
_atom_site_fract_z
_atom_site_occupancy
_atom_site_B_iso_or_equiv
si      0.011   0.000   0.235    1.00000    1.000
si      0.311   0.872   0.578    1.00000    1.000
o      0.000   0.459   0.500    1.00000    1.000
o      0.000   0.948   0.000    1.00000    1.000
o      0.128   0.189   0.292    1.00000    1.000
o      0.134   0.841   0.378    1.00000    1.000
o      0.215   0.011   0.721    1.00000    1.000
_cell_measurement_wavelength    1.541874
_cell_measurement_radiation   'x-rays'
_exptl_crystal_density_diffrn    2.406000
loop_
_pd_peak_d_spacing
_pd_peak_intensity
     6.563883       1000.00
     4.960915        744.13
     4.285256         16.39
     3.695355        372.19
     3.688050        390.11
     3.351802          4.20
     3.281941         56.86
     3.271270        314.96
     3.215279        182.82
     2.952696        131.45
     2.762950          3.94
     2.632452         97.20
     2.562863        225.44
     2.480458         73.57
     2.451740        132.12
     2.447282         81.38
     2.308336         18.65
     2.227750         17.73
     2.211248         31.40
     2.187961          9.85
     2.163184         77.30
     2.142628         53.49
     2.138556         46.55
     2.134925         17.45
     2.130700         75.13
     2.125430          5.90
     2.034550          1.05
     1.979619         20.32
     1.954632          7.22
     1.924411         13.38
     1.897684         16.81
     1.881736          4.70
     1.847677         19.84
     1.844025          3.37
     1.827914         23.41
     1.781455         40.37
     1.775298         23.73
     1.710698          2.45
     1.707309         15.76
     1.680201         12.91
     1.675901          5.76
     1.664946          6.39
     1.653638         11.32
     1.648863          3.87
     1.647547          6.36
     1.640971          9.89
     1.635635          2.31
     1.634196         26.26
     1.615655         38.10
     1.611062          6.60
     1.607640         45.42
     1.606381         18.66
     1.576780          8.38
     1.551877          4.41
     1.548943          1.03
     1.548452          7.71
     1.534426         39.29
     1.533794          1.14
     1.529002         18.33
     1.525760         54.47
     1.510331         12.91
     1.499261         36.98
     1.495188         27.14
     1.491470          8.37
     1.486928         28.75
     1.476348          3.86
     1.447338          4.18
     1.440746         24.48
     1.428419          3.24
     1.428103         11.72
     1.420510          4.81
     1.410029          0.36
     1.397505          2.82
     1.395528          8.30
     1.394345          2.12
     1.393660         34.47
     1.384770          6.10
     1.381475          6.10
     1.379063          9.69
     1.366574         12.75
     1.366327         18.36
     1.347207         15.37
     1.341321         23.54
     1.320288         14.48
     1.319963          0.54
     1.319107          3.79
     1.318306          0.67
     1.316226         24.50
     1.312777          2.03
     1.298189          4.21
     1.294686         30.82
     1.293693         10.34
     1.281432         24.14
     1.265503          6.11
     1.254135          4.63
     1.247287          0.37
     1.245298          8.21
     1.241969          3.00
     1.241382          4.44
     1.240229         13.24
     1.239645         25.16
     1.236762         10.44
     1.235769         12.67
     1.232685         20.23
     1.231785          6.35
     1.231124          1.19
     1.229350         14.44
     1.228604          4.32
     1.225870         23.98
     1.223686         12.58
     1.223641         21.80
     1.214844          1.79
     1.213250          8.22
     1.208340          6.44
     1.198404          4.03
     1.196927          3.73
     1.192965          4.15
     1.186045          6.47
     1.185825          5.58
     1.179490          2.06
     1.177930          7.00
     1.177699          7.53
     1.177091         27.15
     1.157502          1.10
     1.155810          0.08
     1.154168          7.19
     1.153857          5.44
     1.151235          9.64
     1.150773          8.75
     1.148346          4.50
     1.146018         12.55
     1.144721          0.04
     1.141098          1.41
     1.131337          0.01
     1.129251          7.10
     1.125211          0.80
     1.123749          7.34
     1.123187          0.45
     1.117267          7.47
     1.114455          4.37
     1.113875         12.97
     1.111841          5.04
     1.109786          0.44
     1.107792          1.38
     1.107311          0.61
     1.105624          2.48
     1.104397          2.55
     1.102917          4.53
     1.097941          0.02
     1.093980          4.43
     1.093269          3.62
     1.090423          0.32
     1.090112          1.08
     1.084844          1.02
     1.081592          1.01
     1.072435          3.40
     1.071760          0.43
     1.071314          0.38
     1.069451          3.22
     1.069278          6.21
     1.067463          0.59
     1.065623          0.17
     1.065350          0.37
     1.062833          7.22
     1.062715          5.60
     1.059603          7.72
     1.052187          1.55
     1.050965          2.73
     1.049180          2.49
     1.048811          3.03
     1.045676          1.13
     1.043425          6.12
     1.042413          0.90
     1.040947          1.75
     1.040092          0.57
     1.035550          4.28
     1.033238          1.16
     1.031580          2.69
     1.027506          0.47
     1.025376          4.78
     1.024282          3.27
     1.023745          3.25
     1.023036          1.23
     1.017275          0.40
     1.016963          2.68
     1.014480          1.15
##############################################################################
###                            Comments                                    ###
##############################################################################
###   Diffraction pattern calculated by Match!. 
###   I/Ic calculated by Match!. 
###   Space group has been derived from given symmetry operations. 
##############################################################################


