##############################################################################
###               Crystal structure data exported by Match!                ###
##############################################################################
###                           Data published by:                           ###
###                                                                        ###
###               COD (Crystallography Open Database)
##############################################################################
data_9001818
_citation_journal_full    'American Mineralogist'
_citation_journal_volume  '82'
_citation_page_first  '276'
_citation_page_last   '279'
_citation_year  '1997'
_citation_title  'Natural kalsilite, KAlSiO4, with P31c symmetry: Crystal structure andtwinning'
loop_
_publ_author_name
  'Cellai D.'
  'Bonazzi P.'
  'Carpenter M. A.'
_chemical_formula_sum  'Al K O4 Si'
_chemical_name_mineral  'Kalsilite'
_symmetry_space_group_name_H-M 'P 3 1 c'
_space_group_IT_number 159
_space_group_crystal_system 'trigonal (hexagonal axes)'
loop_
_symmetry_equiv_pos_as_xyz
   'x, y, z'
   '-y, x-y, z'
   '-x+y, -x, z'
   'y, x, z+0.5'
   'x-y, -y, z+0.5'
   '-x, -x+y, z+0.5'
_cell_length_a        5.15700
_cell_length_b        5.15700
_cell_length_c        8.70600
_cell_angle_alpha    90.0000
_cell_angle_beta     90.0000
_cell_angle_gamma   120.0000
loop_
_atom_site_label
_atom_site_fract_x
_atom_site_fract_y
_atom_site_fract_z
_atom_site_occupancy
_atom_site_B_iso_or_equiv
k      0.000   0.000   0.250    1.00000    1.302
al      0.333   0.667   0.059    1.00000    0.363
si      0.333   0.667   0.442    1.00000    0.700
o      0.616   0.011   0.000    1.00000    1.289
o      0.333   0.667   0.260    1.00000    2.000
_cell_measurement_wavelength    1.541874
_cell_measurement_radiation   'x-rays'
_exptl_crystal_density_diffrn    2.620000
loop_
_pd_peak_d_spacing
_pd_peak_intensity
     4.466093         12.27
     4.353000        145.92
     3.973734        552.40
     3.117251       1000.00
     2.578500        697.73
     2.433403        113.09
     2.233047         28.16
     2.218498        217.52
     2.176500        158.77
     2.163027         78.92
     1.986867         64.30
     1.956529         25.76
     1.769749         46.49
     1.688025          9.92
     1.663197         75.24
     1.657162         57.07
     1.622268        105.38
     1.573833        164.79
     1.558626         53.84
     1.488698        187.87
     1.467399          0.04
     1.459131         52.32
     1.451000          6.47
     1.408600          7.95
     1.379994          5.73
     1.373112         54.27
     1.333873         24.99
     1.324578          0.02
     1.289250         61.65
     1.264532        113.53
     1.238671          6.81
     1.236171          3.82
     1.228761         52.76
     1.226321         15.65
     1.216701          0.19
     1.211977         66.59
     1.198124          3.64
     1.191376         84.51
     1.139234         23.83
     1.131510          0.01
     1.116523          0.41
     1.109249         14.59
     1.107453          5.45
     1.100353          4.36
     1.088250          0.20
     1.086554          2.94
     1.081514         24.53
     1.076541          7.35
     1.057314         18.19
     1.042058          9.66
     1.039084         20.41
     1.024592          1.27
     1.017569          8.14
     1.009329         37.23
##############################################################################
###                            Comments                                    ###
##############################################################################
###   Diffraction pattern calculated by Match!. 
###   I/Ic calculated by Match!. 
###   Space group has been derived from given symmetry operations. 
##############################################################################


