##############################################################################
###               Crystal structure data exported by Match!                ###
##############################################################################
###                           Data published by:                           ###
###                                                                        ###
###               COD (Crystallography Open Database)
##############################################################################
data_9011741
_citation_journal_full    'Neues Jahrbuch fur Mineralogie, Monatshefte'
_citation_journal_volume  '1981'
_citation_page_first  '151'
_citation_page_last   '154'
_citation_year  '1981'
_citation_title  'Dreyerite: ein naturliches, tetragonales wismutvanadat von Hirschhorn/PfalzLocality: Hirschhorn, Pfalz, Germany'
loop_
_publ_author_name
  'Dreyer G.'
  'Tillmanns E.'
_chemical_formula_sum  'Bi O4 V'
_chemical_name_mineral  'Dreyerite'
_symmetry_space_group_name_H-M 'I 41/a m d'
_space_group_IT_number 141
_space_group_crystal_system 'tetragonal'
loop_
_symmetry_equiv_pos_as_xyz
   'x, y, z'
   'x+0.5, y+0.5, z+0.5'
   '-y+0.25, x+0.75, z+0.25'
   '-y+0.75, x+0.25, z+0.75'
   '-x, -y+0.5, z'
   '-x+0.5, -y, z+0.5'
   'y+0.25, -x+0.25, z+0.75'
   'y+0.75, -x+0.75, z+0.25'
   'x, -y, -z'
   'x+0.5, -y+0.5, -z+0.5'
   '-x, y+0.5, -z'
   '-x+0.5, y, -z+0.5'
   'y+0.25, x+0.75, -z+0.25'
   'y+0.75, x+0.25, -z+0.75'
   '-y+0.25, -x+0.25, -z+0.75'
   '-y+0.75, -x+0.75, -z+0.25'
   '-x, -y, -z'
   '-x+0.5, -y+0.5, -z+0.5'
   'y+0.25, -x+0.75, -z+0.25'
   'y+0.75, -x+0.25, -z+0.75'
   'x, y+0.5, -z'
   'x+0.5, y, -z+0.5'
   '-y+0.25, x+0.25, -z+0.75'
   '-y+0.75, x+0.75, -z+0.25'
   '-x, y, z'
   '-x+0.5, y+0.5, z+0.5'
   'x, -y+0.5, z'
   'x+0.5, -y, z+0.5'
   '-y+0.25, -x+0.75, z+0.25'
   '-y+0.75, -x+0.25, z+0.75'
   'y+0.25, x+0.25, z+0.75'
   'y+0.75, x+0.75, z+0.25'
_cell_length_a        7.30300
_cell_length_b        7.30300
_cell_length_c        6.58400
_cell_angle_alpha    90.0000
_cell_angle_beta     90.0000
_cell_angle_gamma    90.0000
loop_
_atom_site_label
_atom_site_fract_x
_atom_site_fract_y
_atom_site_fract_z
_atom_site_occupancy
_atom_site_B_iso_or_equiv
bi      0.000   0.750   0.125    1.00000    1.299
v      0.000   0.250   0.375    1.00000    0.400
o      0.000   0.072   0.208    1.00000    1.000
_cell_measurement_wavelength    1.541874
_cell_measurement_radiation   'x-rays'
_exptl_crystal_density_diffrn    6.127000
loop_
_pd_peak_d_spacing
_pd_peak_intensity
     4.890085        558.45
     3.651500       1000.00
     2.925807        232.83
     2.775916        762.17
     2.582000        245.37
     2.445042         19.22
     2.283265        159.88
     2.101811        112.10
     1.935948        152.29
     1.890590        555.08
     1.825750        136.52
     1.821599         78.47
     1.710425         52.04
     1.646000         31.85
     1.633000        127.78
     1.630028         28.86
     1.596639          1.81
     1.525392        145.27
     1.500588        108.21
     1.488457         22.03
     1.462903          0.22
     1.425934         63.60
     1.387958         93.23
     1.378342         32.25
     1.340387          2.00
     1.328250         16.90
     1.313325        118.92
     1.295903          7.92
     1.291000         28.59
     1.222521         47.36
     1.221273         25.04
     1.217167         34.30
     1.215934         27.51
     1.181129         15.55
     1.170597         88.06
     1.159274         89.80
     1.158210          4.46
     1.154706         43.31
     1.153653         16.06
     1.141633          0.00
     1.123800          9.92
     1.104005         15.19
     1.089620          0.85
     1.080470          0.04
     1.074083         18.40
     1.073367         37.42
     1.056761         13.15
     1.053297         16.10
     1.050905          0.00
     1.030429          5.91
     1.015822         29.21
     1.012744         31.11
     1.012034         11.86
##############################################################################
###                            Comments                                    ###
##############################################################################
###   Diffraction pattern calculated by Match!. 
###   I/Ic calculated by Match!. 
###   Space group has been derived from given symmetry operations. 
##############################################################################


