##############################################################################
###               Crystal structure data exported by Match!                ###
##############################################################################
###                           Data published by:                           ###
###                                                                        ###
###               COD (Crystallography Open Database)
##############################################################################
data_7202757
_citation_journal_full    'CrystEngComm'
_citation_journal_volume  '9(6)'
_citation_page_first  '463'
_citation_year  '2007'
_citation_title  'A computational study into the viability of new molecular materialspolymorphs based on fully-coordinated inorganic nanoclusters'
loop_
_publ_author_name
  'Bromley Stefan T.'
_chemical_formula_sum  'O2 Si'
_chemical_name_common  'Silica'
_symmetry_space_group_name_H-M 'P 1'
_space_group_IT_number 1
_space_group_crystal_system 'triclinic'
loop_
_symmetry_equiv_pos_as_xyz
   'x, y, z'
_cell_length_a       14.48590
_cell_length_b       10.03720
_cell_length_c       43.00250
_cell_angle_alpha    90.0000
_cell_angle_beta     90.0000
_cell_angle_gamma    90.0000
loop_
_atom_site_label
_atom_site_fract_x
_atom_site_fract_y
_atom_site_fract_z
_atom_site_occupancy
_atom_site_B_iso_or_equiv
si      -0.062   0.686   0.773    1.00000    1.000
si      0.562   0.314   0.274    1.00000    1.000
si      0.438   0.814   0.227    1.00000    1.000
si      1.062   0.186   0.727    1.00000    1.000
si      1.062   0.314   0.227    1.00000    1.000
si      0.438   0.686   0.727    1.00000    1.000
si      0.562   0.186   0.773    1.00000    1.000
si      -0.062   0.814   0.274    1.00000    1.000
si      -0.186   0.594   0.801    1.00000    1.000
si      0.686   0.406   0.301    1.00000    1.000
si      0.314   0.906   0.199    1.00000    1.000
si      1.186   0.093   0.699    1.00000    1.000
si      1.186   0.406   0.199    1.00000    1.000
si      0.314   0.594   0.699    1.00000    1.000
si      0.686   0.093   0.801    1.00000    1.000
si      -0.186   0.906   0.301    1.00000    1.000
si      -0.166   0.580   0.947    1.00000    1.000
si      0.666   0.420   0.447    1.00000    1.000
si      0.334   0.920   0.053    1.00000    1.000
si      1.166   0.080   0.553    1.00000    1.000
si      1.166   0.420   0.053    1.00000    1.000
si      0.334   0.580   0.553    1.00000    1.000
si      0.666   0.080   0.947    1.00000    1.000
si      -0.166   0.920   0.447    1.00000    1.000
si      -0.247   0.520   0.902    1.00000    1.000
si      0.747   0.479   0.402    1.00000    1.000
si      0.253   0.980   0.098    1.00000    1.000
si      1.247   0.020   0.598    1.00000    1.000
si      1.247   0.480   0.098    1.00000    1.000
si      0.253   0.520   0.598    1.00000    1.000
si      0.747   0.021   0.902    1.00000    1.000
si      -0.247   0.980   0.402    1.00000    1.000
si      -0.038   0.672   0.972    1.00000    1.000
si      0.538   0.328   0.472    1.00000    1.000
si      0.462   0.828   0.028    1.00000    1.000
si      1.038   0.172   0.528    1.00000    1.000
si      1.038   0.328   0.028    1.00000    1.000
si      0.462   0.672   0.528    1.00000    1.000
si      0.538   0.172   0.972    1.00000    1.000
si      -0.038   0.828   0.472    1.00000    1.000
si      0.084   0.785   0.772    1.00000    1.000
si      0.416   0.214   0.273    1.00000    1.000
si      0.584   0.715   0.228    1.00000    1.000
si      0.916   0.285   0.728    1.00000    1.000
si      0.916   0.214   0.228    1.00000    1.000
si      0.584   0.785   0.728    1.00000    1.000
si      0.416   0.285   0.772    1.00000    1.000
si      0.084   0.715   0.273    1.00000    1.000
si      0.106   0.776   0.971    1.00000    1.000
si      0.394   0.224   0.471    1.00000    1.000
si      0.606   0.724   0.029    1.00000    1.000
si      0.894   0.276   0.529    1.00000    1.000
si      0.894   0.224   0.029    1.00000    1.000
si      0.606   0.776   0.529    1.00000    1.000
si      0.394   0.276   0.971    1.00000    1.000
si      0.106   0.724   0.471    1.00000    1.000
si      -0.255   0.526   0.848    1.00000    1.000
si      0.754   0.474   0.348    1.00000    1.000
si      0.245   0.974   0.152    1.00000    1.000
si      1.254   0.026   0.652    1.00000    1.000
si      1.255   0.474   0.152    1.00000    1.000
si      0.245   0.526   0.652    1.00000    1.000
si      0.754   0.026   0.848    1.00000    1.000
si      -0.255   0.974   0.348    1.00000    1.000
si      0.215   0.871   0.797    1.00000    1.000
si      0.285   0.129   0.297    1.00000    1.000
si      0.715   0.629   0.203    1.00000    1.000
si      0.785   0.371   0.703    1.00000    1.000
si      0.785   0.129   0.203    1.00000    1.000
si      0.715   0.871   0.703    1.00000    1.000
si      0.285   0.371   0.797    1.00000    1.000
si      0.215   0.629   0.297    1.00000    1.000
si      0.298   0.922   0.842    1.00000    1.000
si      0.202   0.078   0.342    1.00000    1.000
si      0.798   0.578   0.158    1.00000    1.000
si      0.702   0.422   0.658    1.00000    1.000
si      0.702   0.078   0.158    1.00000    1.000
si      0.798   0.922   0.658    1.00000    1.000
si      0.202   0.422   0.842    1.00000    1.000
si      0.298   0.578   0.342    1.00000    1.000
si      0.303   0.920   0.896    1.00000    1.000
si      0.197   0.080   0.396    1.00000    1.000
si      0.803   0.580   0.104    1.00000    1.000
si      0.697   0.420   0.604    1.00000    1.000
si      0.697   0.080   0.104    1.00000    1.000
si      0.803   0.920   0.604    1.00000    1.000
si      0.197   0.420   0.896    1.00000    1.000
si      0.303   0.580   0.396    1.00000    1.000
si      0.230   0.866   0.943    1.00000    1.000
si      0.270   0.134   0.443    1.00000    1.000
si      0.730   0.634   0.057    1.00000    1.000
si      0.770   0.366   0.557    1.00000    1.000
si      0.770   0.134   0.057    1.00000    1.000
si      0.730   0.866   0.557    1.00000    1.000
si      0.270   0.366   0.943    1.00000    1.000
si      0.230   0.634   0.443    1.00000    1.000
o      -0.234   0.450   0.937    1.00000    1.000
o      0.734   0.550   0.437    1.00000    1.000
o      0.266   1.050   0.063    1.00000    1.000
o      1.234   -0.050   0.563    1.00000    1.000
o      1.234   0.550   0.063    1.00000    1.000
o      0.266   0.450   0.563    1.00000    1.000
o      0.734   -0.050   0.937    1.00000    1.000
o      -0.234   1.050   0.437    1.00000    1.000
o      -0.205   0.664   0.916    1.00000    1.000
o      0.706   0.336   0.416    1.00000    1.000
o      0.294   0.836   0.084    1.00000    1.000
o      1.206   0.164   0.584    1.00000    1.000
o      1.206   0.336   0.084    1.00000    1.000
o      0.294   0.664   0.584    1.00000    1.000
o      0.706   0.164   0.916    1.00000    1.000
o      -0.205   0.836   0.416    1.00000    1.000
o      -0.152   0.668   0.980    1.00000    1.000
o      0.652   0.332   0.480    1.00000    1.000
o      0.348   0.832   0.020    1.00000    1.000
o      1.152   0.169   0.520    1.00000    1.000
o      1.152   0.332   0.020    1.00000    1.000
o      0.348   0.668   0.520    1.00000    1.000
o      0.652   0.169   0.980    1.00000    1.000
o      -0.152   0.832   0.480    1.00000    1.000
o      -0.053   0.553   0.945    1.00000    1.000
o      0.553   0.447   0.445    1.00000    1.000
o      0.447   0.947   0.055    1.00000    1.000
o      1.053   0.053   0.555    1.00000    1.000
o      1.053   0.447   0.055    1.00000    1.000
o      0.447   0.553   0.555    1.00000    1.000
o      0.553   0.053   0.945    1.00000    1.000
o      -0.053   0.947   0.445    1.00000    1.000
o      0.001   0.815   0.957    1.00000    1.000
o      0.499   0.185   0.457    1.00000    1.000
o      0.501   0.685   0.043    1.00000    1.000
o      0.999   0.315   0.543    1.00000    1.000
o      0.999   0.185   0.043    1.00000    1.000
o      0.501   0.815   0.543    1.00000    1.000
o      0.499   0.315   0.957    1.00000    1.000
o      0.001   0.685   0.457    1.00000    1.000
o      0.058   0.658   0.994    1.00000    1.000
o      0.442   0.342   0.493    1.00000    1.000
o      0.558   0.842   0.006    1.00000    1.000
o      0.942   0.158   0.506    1.00000    1.000
o      0.942   0.342   0.006    1.00000    1.000
o      0.558   0.658   0.506    1.00000    1.000
o      0.442   0.158   0.994    1.00000    1.000
o      0.058   0.842   0.493    1.00000    1.000
o      0.179   0.716   0.944    1.00000    1.000
o      0.321   0.284   0.444    1.00000    1.000
o      0.679   0.784   0.056    1.00000    1.000
o      0.821   0.216   0.556    1.00000    1.000
o      0.821   0.284   0.056    1.00000    1.000
o      0.679   0.716   0.556    1.00000    1.000
o      0.321   0.216   0.944    1.00000    1.000
o      0.179   0.784   0.444    1.00000    1.000
o      0.175   0.908   0.977    1.00000    1.000
o      0.325   0.092   0.476    1.00000    1.000
o      0.675   0.592   0.024    1.00000    1.000
o      0.825   0.408   0.523    1.00000    1.000
o      0.825   0.092   0.024    1.00000    1.000
o      0.675   0.908   0.523    1.00000    1.000
o      0.325   0.408   0.977    1.00000    1.000
o      0.175   0.592   0.476    1.00000    1.000
o      0.163   0.722   0.796    1.00000    1.000
o      0.337   0.278   0.296    1.00000    1.000
o      0.663   0.778   0.203    1.00000    1.000
o      0.837   0.222   0.704    1.00000    1.000
o      0.837   0.278   0.203    1.00000    1.000
o      0.663   0.722   0.704    1.00000    1.000
o      0.337   0.222   0.796    1.00000    1.000
o      0.163   0.778   0.296    1.00000    1.000
o      0.153   0.917   0.765    1.00000    1.000
o      0.347   0.083   0.266    1.00000    1.000
o      0.653   0.583   0.234    1.00000    1.000
o      0.847   0.417   0.735    1.00000    1.000
o      0.847   0.083   0.234    1.00000    1.000
o      0.653   0.917   0.735    1.00000    1.000
o      0.347   0.417   0.765    1.00000    1.000
o      0.153   0.583   0.266    1.00000    1.000
o      -0.016   0.823   0.790    1.00000    1.000
o      0.516   0.177   0.290    1.00000    1.000
o      0.484   0.677   0.210    1.00000    1.000
o      1.016   0.323   0.710    1.00000    1.000
o      1.016   0.177   0.210    1.00000    1.000
o      0.484   0.823   0.710    1.00000    1.000
o      0.516   0.323   0.790    1.00000    1.000
o      -0.016   0.677   0.290    1.00000    1.000
o      0.029   0.675   0.749    1.00000    1.000
o      0.470   0.325   0.249    1.00000    1.000
o      0.529   0.825   0.251    1.00000    1.000
o      0.971   0.175   0.751    1.00000    1.000
o      0.971   0.325   0.251    1.00000    1.000
o      0.529   0.675   0.751    1.00000    1.000
o      0.470   0.175   0.749    1.00000    1.000
o      0.029   0.825   0.249    1.00000    1.000
o      -0.214   0.671   0.834    1.00000    1.000
o      0.714   0.329   0.334    1.00000    1.000
o      0.286   0.829   0.166    1.00000    1.000
o      1.214   0.171   0.666    1.00000    1.000
o      1.214   0.329   0.166    1.00000    1.000
o      0.286   0.671   0.666    1.00000    1.000
o      0.714   0.171   0.834    1.00000    1.000
o      -0.214   0.829   0.334    1.00000    1.000
o      -0.253   0.464   0.811    1.00000    1.000
o      0.753   0.536   0.311    1.00000    1.000
o      0.247   1.036   0.189    1.00000    1.000
o      1.253   -0.036   0.689    1.00000    1.000
o      1.253   0.536   0.189    1.00000    1.000
o      0.247   0.464   0.689    1.00000    1.000
o      0.753   -0.036   0.811    1.00000    1.000
o      -0.253   1.036   0.311    1.00000    1.000
o      -0.178   0.692   0.769    1.00000    1.000
o      0.678   0.308   0.269    1.00000    1.000
o      0.322   0.808   0.231    1.00000    1.000
o      1.178   0.192   0.731    1.00000    1.000
o      1.178   0.308   0.231    1.00000    1.000
o      0.322   0.692   0.731    1.00000    1.000
o      0.678   0.192   0.769    1.00000    1.000
o      -0.178   0.808   0.269    1.00000    1.000
o      -0.073   0.559   0.798    1.00000    1.000
o      0.573   0.441   0.298    1.00000    1.000
o      0.427   0.941   0.202    1.00000    1.000
o      1.073   0.059   0.702    1.00000    1.000
o      1.073   0.441   0.202    1.00000    1.000
o      0.427   0.559   0.702    1.00000    1.000
o      0.573   0.059   0.798    1.00000    1.000
o      -0.073   0.941   0.298    1.00000    1.000
o      -0.334   0.544   0.876    1.00000    1.000
o      0.834   0.456   0.376    1.00000    1.000
o      0.166   0.956   0.124    1.00000    1.000
o      1.334   0.044   0.624    1.00000    1.000
o      1.334   0.456   0.124    1.00000    1.000
o      0.166   0.544   0.624    1.00000    1.000
o      0.834   0.044   0.876    1.00000    1.000
o      -0.334   0.956   0.376    1.00000    1.000
o      -0.182   0.457   0.873    1.00000    1.000
o      0.682   0.543   0.373    1.00000    1.000
o      0.318   1.043   0.127    1.00000    1.000
o      1.182   -0.043   0.627    1.00000    1.000
o      1.182   0.543   0.127    1.00000    1.000
o      0.318   0.457   0.627    1.00000    1.000
o      0.682   -0.043   0.873    1.00000    1.000
o      -0.182   1.043   0.373    1.00000    1.000
o      0.193   0.960   0.829    1.00000    1.000
o      0.307   0.040   0.329    1.00000    1.000
o      0.693   0.540   0.171    1.00000    1.000
o      0.807   0.460   0.671    1.00000    1.000
o      0.807   0.040   0.171    1.00000    1.000
o      0.693   0.960   0.671    1.00000    1.000
o      0.307   0.460   0.829    1.00000    1.000
o      0.193   0.540   0.329    1.00000    1.000
o      0.328   0.870   0.806    1.00000    1.000
o      0.172   0.130   0.306    1.00000    1.000
o      0.829   0.630   0.194    1.00000    1.000
o      0.672   0.370   0.694    1.00000    1.000
o      0.672   0.130   0.194    1.00000    1.000
o      0.828   0.870   0.694    1.00000    1.000
o      0.172   0.370   0.806    1.00000    1.000
o      0.328   0.630   0.306    1.00000    1.000
o      0.339   1.029   0.869    1.00000    1.000
o      0.161   -0.029   0.369    1.00000    1.000
o      0.839   0.471   0.131    1.00000    1.000
o      0.661   0.529   0.631    1.00000    1.000
o      0.661   -0.029   0.131    1.00000    1.000
o      0.839   1.029   0.631    1.00000    1.000
o      0.161   0.529   0.869    1.00000    1.000
o      0.339   0.471   0.369    1.00000    1.000
o      0.296   0.802   0.869    1.00000    1.000
o      0.204   0.198   0.369    1.00000    1.000
o      0.796   0.698   0.131    1.00000    1.000
o      0.704   0.302   0.631    1.00000    1.000
o      0.704   0.198   0.131    1.00000    1.000
o      0.796   0.802   0.631    1.00000    1.000
o      0.204   0.302   0.869    1.00000    1.000
o      0.296   0.698   0.369    1.00000    1.000
o      0.341   0.867   0.931    1.00000    1.000
o      0.159   0.133   0.431    1.00000    1.000
o      0.841   0.633   0.069    1.00000    1.000
o      0.659   0.367   0.569    1.00000    1.000
o      0.659   0.133   0.069    1.00000    1.000
o      0.841   0.867   0.569    1.00000    1.000
o      0.159   0.367   0.931    1.00000    1.000
o      0.341   0.633   0.431    1.00000    1.000
o      0.201   0.956   0.912    1.00000    1.000
o      0.299   0.044   0.412    1.00000    1.000
o      0.701   0.544   0.088    1.00000    1.000
o      0.799   0.456   0.588    1.00000    1.000
o      0.799   0.044   0.088    1.00000    1.000
o      0.701   0.956   0.588    1.00000    1.000
o      0.299   0.456   0.912    1.00000    1.000
o      0.201   0.544   0.412    1.00000    1.000
_cell_measurement_wavelength    1.541874
_cell_measurement_radiation   'x-rays'
_exptl_crystal_density_diffrn    1.531000
loop_
_pd_peak_d_spacing
_pd_peak_intensity
    43.002499          0.00
    21.501249         50.30
    14.485900          0.00
    14.334166          0.00
    13.727931          0.00
    12.013725         12.19
    10.750625        138.44
    10.189008          0.00
    10.037200          0.00
     9.774474          0.00
     9.095009          0.00
     8.632944          2.24
     8.600500          0.00
     8.250241          0.00
     8.221910          0.00
     8.102470        321.69
     7.702661        321.05
     7.395293          0.00
     7.336630          0.00
     7.242950        922.59
     7.167083         14.35
     7.150440          0.43
     7.142348          0.00
     6.863965          2.84
     6.545063          2.93
     6.530891          0.00
     6.464548          0.00
     6.423835         23.28
     6.143214          0.00
     6.006862        833.26
     5.953777          6.81
     5.873414          2.89
     5.832740          0.00
     5.819384         88.74
     5.665825          4.21
     5.655656          0.00
     5.540079          0.00
     5.434865         19.08
     5.410606       1000.00
     5.375312         50.97
     5.239715          0.00
     5.154341         45.33
     5.094504          1.79
     5.039540          0.57
     5.018600         10.05
     4.984768         10.91
     4.927289          5.40
     4.887237          0.49
     4.850297        247.94
     4.828633          0.00
     4.798477          0.00
     4.778055          0.00
     4.742077          0.00
     4.738576          0.00
     4.736678         12.37
     4.713504        720.31
     4.711291          0.32
     4.684997          0.00
     4.630789        109.09
     4.575977          0.00
     4.547505        437.13
     4.542839          0.24
     4.537592          0.00
     4.503737          0.04
     4.502108        119.33
     4.404736          0.49
     4.351300          0.00
     4.338737          6.84
     4.334601          5.56
     4.329193         46.36
     4.316472         87.64
     4.314178          0.00
     4.300250          1.92
     4.264842          0.26
     4.245308         68.62
     4.210431          0.00
     4.163686         48.10
     4.152675         46.64
     4.134707          1.89
     4.125121        271.71
     4.122441          2.45
     4.110955          3.37
     4.106271         61.86
     4.051235          2.27
     4.033442          0.20
     4.004575         16.00
     3.988390          0.00
     3.965341         12.78
     3.964229          6.87
     3.954785         20.60
     3.952754          0.00
     3.909318          0.00
     3.886558          0.17
     3.882659         12.11
     3.851330          7.63
     3.813337        211.91
     3.796296          0.00
     3.774292          0.00
     3.753798         96.50
     3.719470         58.46
     3.719417         17.97
     3.706491          1.24
     3.697647          4.11
     3.668315          5.60
     3.642771          0.00
     3.621475         29.36
     3.608701          0.00
     3.592133          0.30
     3.583542         35.80
     3.575220          0.00
     3.571174          0.18
     3.556066          0.09
     3.550806          3.35
     3.532782          0.72
     3.511150          0.00
     3.479580          0.00
     3.478679          0.00
     3.469691          1.06
     3.468244         20.96
     3.460510         12.68
     3.440202          0.00
     3.434891          8.90
     3.431983         24.69
     3.424661          2.83
     3.406525          9.47
     3.396336          0.00
     3.395887          0.14
     3.382070          1.32
     3.381380         28.35
     3.374896          0.00
     3.365803          0.88
     3.364559          0.56
     3.345733          0.00
     3.337650          0.00
     3.335653          0.00
     3.314220          2.84
     3.310497          0.30
     3.307885          0.00
     3.305949          0.00
     3.286871          0.77
     3.272532          8.85
     3.265446          2.78
     3.259913          0.00
     3.258158          0.00
     3.254357          1.87
     3.250587          7.87
     3.247396          3.36
     3.232274          0.02
     3.225591          6.31
     3.224873          0.00
     3.223079          1.22
     3.217149          3.34
     3.211917          4.91
     3.211360          0.92
     3.194604          0.00
     3.185512          2.83
     3.178746          3.81
     3.167137         23.08
     3.141671          0.00
     3.130181         12.89
     3.122433          1.57
     3.119736          0.00
     3.119644          0.06
     3.118105          0.00
     3.084052          0.09
     3.076678          0.31
     3.071607          0.45
     3.070293          1.67
     3.059107          2.42
     3.058625          2.25
     3.048286          3.38
     3.038367          0.00
     3.037338         19.20
     3.031670          0.00
     3.029790          6.35
     3.027644          4.21
     3.016447          1.05
     3.008936          0.00
     3.007478          1.36
     3.004800          0.09
     3.003431         15.57
     2.979150          6.94
     2.976888          0.03
     2.971364          0.73
##############################################################################
###                            Comments                                    ###
##############################################################################
###   Diffraction pattern calculated by Match!. 
###   I/Ic calculated by Match!. 
##############################################################################


