##############################################################################
###               Crystal structure data exported by Match!                ###
##############################################################################
###                           Data published by:                           ###
###                                                                        ###
###               COD (Crystallography Open Database)
##############################################################################
data_9011512
_citation_journal_full    'ur Kristallographie''
_citation_journal_volume  '213(2)'
_citation_page_first  '96'
_citation_page_last   '100'
_citation_year  '1998'
_citation_title  'The crystal chemistry of doyleite, Al(OH)~3~Locality: Mont St. Hilaire, Quebec'
loop_
_publ_author_name
  'Clark G. R.'
  'Rodgers K. A.'
  'Henderson G. S.'
_chemical_formula_sum  'Al H3 O3'
_chemical_name_mineral  'Doyleite'
_symmetry_space_group_name_H-M 'P -1'
_space_group_IT_number 2
_space_group_crystal_system 'triclinic'
loop_
_symmetry_equiv_pos_as_xyz
   'x, y, z'
   '-x, -y, -z'
_cell_length_a        4.99970
_cell_length_b        5.16810
_cell_length_c        4.98320
_cell_angle_alpha    97.4440
_cell_angle_beta    118.6880
_cell_angle_gamma   104.6610
loop_
_atom_site_label
_atom_site_fract_x
_atom_site_fract_y
_atom_site_fract_z
_atom_site_occupancy
_atom_site_B_iso_or_equiv
al      0.327   -0.001   0.167    1.00000    0.908
o      0.087   0.209   0.202    1.00000    1.002
o      0.722   0.215   0.566    1.00000    0.971
o      0.467   0.211   -0.055    1.00000    1.076
h      0.160   0.400   0.300    0.50000    3.947
h      0.880   0.400   0.640    0.50000    3.947
h      0.560   0.400   0.000    0.50000    3.947
h      0.160   0.180   0.400    0.50000    3.947
h      0.880   0.180   0.520    0.50000    3.947
h      0.320   0.180   -0.260    0.50000    3.947
_cell_measurement_wavelength    1.541874
_cell_measurement_radiation   'x-rays'
_exptl_crystal_density_diffrn    2.482000
loop_
_pd_peak_d_spacing
_pd_peak_intensity
     4.776059       1000.00
     4.281305        172.73
     4.175848        143.71
     4.087711        123.71
     3.876269        117.17
     3.739229        108.47
     3.316274         58.45
     3.073463         47.78
     2.764472         19.75
     2.664843         12.23
     2.524793          9.29
     2.492698          8.59
     2.469620          9.97
     2.420383         97.09
     2.415012         40.06
     2.401642         13.21
     2.388029         26.96
     2.358133        236.63
     2.321177        228.73
     2.187594          0.10
     2.162205          0.14
     2.156766          6.11
     2.140653          0.08
     2.124327          5.67
     2.087924          0.88
     2.085158          5.14
     2.043856          4.70
     2.020935          7.27
     2.011576          1.74
     1.970211        249.33
     1.961547          0.99
     1.938134         10.48
     1.900028          5.96
     1.869614         14.15
     1.855463        179.22
     1.850481          3.13
     1.841393        179.66
     1.797601          2.45
     1.734073         14.18
     1.707465          1.66
     1.672509         17.59
     1.662317          8.72
     1.662245          7.46
     1.659984          2.07
     1.658137         10.40
     1.643627          2.37
     1.635192         42.63
     1.622882          4.92
     1.622138          6.11
     1.614350         40.47
     1.613831         14.12
     1.605282          0.35
     1.602296          0.00
     1.596813          1.94
     1.592020          0.01
     1.587217          0.16
     1.565454          0.00
     1.564035         13.96
     1.559560         16.35
     1.553221         15.74
     1.543127         10.01
     1.539359         12.37
     1.536732          8.03
     1.530861          2.42
     1.521077         33.37
     1.514432         53.68
     1.510552          0.43
     1.497464         12.04
     1.474915          8.45
     1.468987         12.92
     1.457150         59.92
     1.457004         52.56
     1.456313          3.10
     1.437756          0.35
     1.431362          0.67
     1.430354         11.36
     1.427102         52.56
     1.426849         32.04
     1.425781         10.93
     1.407511          0.22
     1.396933         30.77
     1.395512         15.76
     1.391949         16.16
     1.387182          0.40
     1.382236          7.93
     1.379365          6.04
     1.368931          0.71
     1.362570          5.93
     1.359705          1.90
     1.342544          3.68
     1.339599          5.31
     1.339403          3.26
     1.332422          6.85
     1.329447          2.14
     1.326893          4.86
     1.324794          1.90
     1.307996          1.74
     1.292090          0.66
     1.277500          1.92
     1.276120         35.22
     1.268405          0.43
     1.264806         34.52
     1.262868          1.89
     1.262397          9.06
     1.260314          0.04
     1.259345          2.09
     1.249890          1.23
     1.249533          2.10
     1.246410          0.01
     1.246349          4.20
     1.241345          0.03
     1.235334          0.00
     1.234810          8.29
     1.233177          1.77
     1.224312          2.25
     1.220170          2.98
     1.215261          9.24
     1.211260          1.55
     1.210192          0.02
     1.207506         19.70
     1.206786          1.10
     1.206497          8.13
     1.204589          4.05
     1.204451          9.41
     1.200821          1.81
     1.200510          0.01
     1.199963          0.02
     1.195392         24.60
     1.194015         16.24
     1.193546          1.28
     1.191382          3.04
     1.189861          1.69
     1.188694          2.61
     1.185805          0.09
     1.184204         20.37
     1.179066          1.14
     1.176857          4.25
     1.173541          2.11
     1.172944          7.60
     1.170373          0.63
     1.170341          2.81
     1.163142          0.00
     1.161610          0.03
     1.160589          0.92
     1.159288         20.22
     1.157115          2.19
     1.150682          5.47
     1.150391          3.87
     1.144161          0.19
     1.143814          5.48
     1.136091          0.10
     1.134756          0.14
     1.133503          0.06
     1.132238          2.54
     1.130427          0.07
     1.130260          0.20
     1.129473          0.03
     1.128055          1.73
     1.121925          0.06
     1.116690          0.79
     1.116425          0.02
     1.114404          0.00
     1.109200          3.62
     1.105425          0.01
     1.105375          3.30
     1.105073         13.32
     1.100698          0.71
     1.093797          2.41
     1.089319          2.56
     1.083241          1.20
     1.082834          0.98
     1.081103          2.83
     1.080384          0.85
     1.078383          0.43
     1.077344          0.46
     1.074984          0.04
     1.072441          0.42
     1.070326          3.69
     1.067934          0.01
     1.067564          1.51
     1.064773          0.14
     1.062782          0.13
     1.062164          6.00
     1.061863          2.88
     1.057382          0.29
     1.055998          9.00
     1.050299          0.53
     1.048401          1.25
     1.044157          9.75
     1.043962          0.34
     1.042579          6.11
     1.041972          0.14
     1.038602          0.22
     1.034815          0.05
     1.033200          1.45
     1.032534          0.01
     1.032413          2.25
     1.030423          4.55
     1.029814          2.94
     1.027811          1.05
     1.024488          1.33
     1.023732          4.46
     1.022685          0.45
     1.021928          0.00
     1.020195          0.00
     1.018479          0.23
     1.015987          0.61
     1.015261          1.47
     1.011322          0.09
     1.010468          0.18
     1.010064          0.00
##############################################################################
###                            Comments                                    ###
##############################################################################
###   Diffraction pattern calculated by Match!. 
###   I/Ic calculated by Match!. 
###   Space group has been derived from given symmetry operations. 
##############################################################################


