##############################################################################
###               Crystal structure data exported by Match!                ###
##############################################################################
###                           Data published by:                           ###
###                                                                        ###
###               COD (Crystallography Open Database)
##############################################################################
data_9016326
_citation_journal_full    'Journal of Physics: Condensed Matter'
_citation_journal_volume  '3'
_citation_page_first  '8173'
_citation_page_last   '8180'
_citation_year  '1991'
_citation_title  'CuO: x-ray single-crystal structure determination at 196 K and room temperatureNote: T = room temperature'
loop_
_publ_author_name
  'Asbrink S.'
  'Waskowska A.'
_chemical_formula_sum  'Cu O'
_chemical_name_mineral  'Tenorite'
_symmetry_space_group_name_H-M 'C 1 c 1'
_space_group_IT_number 9
_space_group_crystal_system 'monoclinic'
loop_
_symmetry_equiv_pos_as_xyz
   'x, y, z'
   'x+0.5, y+0.5, z'
   'x, -y, z+0.5'
   'x+0.5, -y+0.5, z+0.5'
_cell_length_a        4.69270
_cell_length_b        3.42830
_cell_length_c        5.13700
_cell_angle_alpha    90.0000
_cell_angle_beta     99.5460
_cell_angle_gamma    90.0000
loop_
_atom_site_label
_atom_site_fract_x
_atom_site_fract_y
_atom_site_fract_z
_atom_site_occupancy
_atom_site_B_iso_or_equiv
cu      0.250   0.247   0.000    1.00000    0.555
o      -0.010   0.418   0.260    1.00000    0.618
_cell_measurement_wavelength    1.541874
_cell_measurement_radiation   'x-rays'
_exptl_crystal_density_diffrn    6.483000
loop_
_pd_peak_d_spacing
_pd_peak_intensity
     2.754733         61.48
     2.532933        303.41
     2.527026        805.90
     2.325631       1000.00
     2.313860        234.69
     1.963626         16.36
     1.869723        286.69
     1.779089         11.30
     1.714150        114.53
     1.623714          7.70
     1.582650        152.97
     1.507501        210.32
     1.419621        166.36
     1.411596        161.16
     1.406730          3.51
     1.380235        101.96
     1.377366        147.01
     1.363633          2.94
     1.317259          2.89
     1.305496         81.92
     1.297092          2.64
     1.266467         60.64
     1.263513         71.91
     1.202960          1.62
     1.197747         24.79
     1.196382          1.84
     1.171455         54.91
     1.162816         52.23
     1.157723          1.49
     1.156930         42.42
     1.125234         19.92
     1.123014          1.55
     1.109855          1.17
     1.109441          0.21
     1.092874         69.62
     1.074862         33.12
     1.040635         15.29
     1.031415          0.17
     1.021141          0.81
     1.019190          0.98
     1.018608         35.13
     1.008422         48.00
##############################################################################
###                            Comments                                    ###
##############################################################################
###   Synthetic
###   Diffraction pattern calculated by Match!. 
###   I/Ic calculated by Match!. 
###   Space group has been derived from given symmetry operations. 
##############################################################################


