##############################################################################
###               Crystal structure data exported by Match!                ###
##############################################################################
###                           Data published by:                           ###
###                                                                        ###
###               COD (Crystallography Open Database)
##############################################################################
data_9013583
_citation_journal_full    'American Mineralogist'
_citation_journal_volume  '94'
_citation_page_first  '451'
_citation_page_last   '460'
_citation_year  '2009'
_citation_title  'Molecular conformation and anion configuration variations for As4S4 andAs4Se4 in an anion-substituted solid solution Locality: synthetic Note:S1Se1-18'
loop_
_publ_author_name
  'Kyono A.'
_chemical_formula_sum  'As S0.908 Se0.093'
_chemical_name_mineral  'Realgar'
_symmetry_space_group_name_H-M 'P 1 21/n 1'
_space_group_IT_number 14
_space_group_crystal_system 'monoclinic'
loop_
_symmetry_equiv_pos_as_xyz
   'x, y, z'
   '-x+0.5, y+0.5, -z+0.5'
   '-x, -y, -z'
   'x+0.5, -y+0.5, z+0.5'
_cell_length_a        9.35270
_cell_length_b       13.57950
_cell_length_c        6.60690
_cell_angle_alpha    90.0000
_cell_angle_beta    106.3820
_cell_angle_gamma    90.0000
loop_
_atom_site_label
_atom_site_fract_x
_atom_site_fract_y
_atom_site_fract_z
_atom_site_occupancy
_atom_site_B_iso_or_equiv
as      0.121   -0.021   0.763    1.00000    2.067
as      0.424   0.139   0.857    1.00000    2.059
as      0.321   0.127   0.177    1.00000    2.067
as      0.040   0.161   0.714    1.00000    2.235
s      0.345   -0.007   0.699    0.89700    2.408
se      0.345   -0.007   0.699    0.10300    2.408
s      0.214   -0.024   0.119    0.88800    2.266
se      0.214   -0.024   0.119    0.11200    2.266
s      0.239   0.227   0.638    0.94100    2.542
se      0.239   0.227   0.638    0.05900    2.542
s      0.106   0.212   0.052    0.90400    2.629
se      0.106   0.212   0.052    0.09600    2.629
_cell_measurement_wavelength    1.541874
_cell_measurement_radiation   'x-rays'
_exptl_crystal_density_diffrn    3.674000
loop_
_pd_peak_d_spacing
_pd_peak_intensity
     7.486283         75.02
     6.789750         64.26
     6.042185        397.77
     5.743747        469.09
     5.520384        261.32
     5.414374       1000.00
     4.633387        105.36
     4.601589         29.75
     4.513723         12.44
     4.486503          3.27
     4.358167          0.00
     4.260019         34.40
     4.077158        200.54
     4.041393         25.30
     3.809199         35.69
     3.743142         84.35
     3.683674         54.04
     3.622678          5.74
     3.617268         86.31
     3.394875          0.56
     3.226939         19.46
     3.201532         23.05
     3.186483        331.35
     3.175217        289.92
     3.169339        426.94
     3.165016         20.74
     3.107747         13.59
     3.086393         77.72
     3.058279        355.81
     3.021093          2.29
     2.992680        194.84
     2.983551         78.60
     2.963935        232.18
     2.959696          0.08
     2.948994        164.12
     2.934890        508.18
     2.920987         17.12
     2.871873        106.26
     2.788466        136.14
     2.760192         17.73
     2.737187        130.51
     2.731864        444.75
     2.707187        111.67
     2.699422        162.67
     2.663628          1.10
     2.658404         67.56
     2.642487          6.45
     2.599439        168.55
     2.596211         31.15
     2.552368         11.18
     2.534100         27.39
     2.521740        135.30
     2.512823         10.36
     2.496402          1.60
     2.495428        131.05
     2.477160        161.93
     2.451289         93.65
     2.412302         54.78
     2.400617         92.32
     2.364215         71.86
     2.352998          0.97
     2.349395         16.33
     2.338907          0.00
     2.323364          9.48
     2.316693          4.53
     2.305631         30.61
     2.300794         13.99
     2.298015          0.67
     2.292308          0.02
     2.272238          0.13
     2.268464          1.37
     2.263250        140.06
     2.256862          0.56
     2.244234         50.70
     2.243251         21.01
     2.232518        102.99
     2.213256         22.97
     2.205237         22.22
     2.199710        127.80
     2.194519        100.30
     2.179083         34.77
     2.171406         67.47
     2.155512          1.73
     2.138938          3.23
     2.137183         99.66
     2.133965        120.67
     2.131457          6.16
     2.130010         47.59
     2.119443         43.42
     2.111196         39.32
     2.095590          0.00
     2.092629          0.33
     2.087772         27.93
     2.085249          1.17
     2.072808          1.27
     2.062282          0.06
     2.059056         50.27
     2.051043          4.60
     2.047235         16.59
     2.038579         43.18
     2.030897          4.89
     2.030736          3.65
     2.020697         24.73
     2.019737          0.15
     2.017465          1.11
     2.014062         24.18
     2.010671         20.23
     2.009964          2.74
     2.000165         11.22
     1.992268         12.15
     1.987366         47.98
     1.978464         20.93
     1.950019          7.10
     1.938293          3.20
     1.933897         35.06
     1.932599          0.56
     1.930902          5.58
     1.929140          0.85
     1.921989          2.92
     1.918844         17.61
     1.914582          4.47
     1.904600          9.71
     1.902559          5.18
     1.896122          9.19
     1.873264         20.63
     1.871571          8.07
     1.870539         18.55
     1.865449         50.27
     1.865324          2.77
     1.863834         96.28
     1.858143        130.82
     1.854999          9.20
     1.853041         26.83
     1.848898         14.98
     1.847063          3.04
     1.846060          5.70
     1.841837         80.17
     1.840128          4.13
     1.822888          0.05
     1.819702          0.20
     1.819260        115.55
     1.811339          4.81
     1.808634         18.45
     1.804791         16.18
     1.803355        119.80
     1.798573         11.43
     1.793841         31.23
     1.790040         74.73
     1.787571          4.73
     1.781805         25.40
     1.780603          0.33
     1.779132          3.15
     1.778065          2.43
     1.769115         49.27
     1.768743         18.10
     1.766507         13.33
     1.755526         17.85
     1.753035          0.94
     1.748650         20.68
     1.735020         18.19
     1.734030          6.49
     1.732169         55.06
     1.729560          4.04
     1.728746         22.94
     1.718510         15.21
     1.709367        121.28
     1.697465         63.97
     1.697438         46.95
     1.690921          6.16
     1.690196          0.73
     1.684267         49.28
     1.683259        127.37
     1.679526         33.46
     1.678656         94.69
     1.672233          3.51
     1.671637          5.95
     1.668271          4.12
     1.667857         16.59
     1.667660         31.30
     1.667391         28.88
     1.666373          0.10
     1.662868         31.19
     1.654583          4.25
     1.647199         27.98
     1.639664          2.72
     1.638311         61.37
     1.638157         19.34
     1.635213          4.69
     1.634176          5.39
     1.632367         17.46
     1.629970          7.70
     1.627570         18.10
     1.627326          8.85
     1.624001         36.67
     1.617982          0.19
     1.617763          0.00
     1.615765          0.83
     1.613470         11.83
     1.611691          5.19
     1.610105          0.61
     1.600766          2.21
     1.600458         42.20
     1.600306         16.50
     1.598905         11.86
     1.595846          0.02
     1.593242          5.57
     1.592541          1.72
     1.588277          0.85
     1.587608          7.47
     1.586565          6.90
     1.586038          5.51
     1.585808          1.57
     1.584669          0.21
     1.583411         16.79
     1.582508         52.81
     1.577703          0.00
     1.577593          0.30
     1.577415         29.08
     1.573988          6.00
     1.568613          0.00
     1.568119         16.85
     1.566658          4.77
     1.562885         15.55
     1.556656          7.65
     1.553874         22.19
     1.547895          0.01
     1.547548         26.01
     1.546852          0.02
     1.544462          1.76
     1.543446          1.98
     1.543196          5.80
     1.543124          8.30
     1.540513          6.62
     1.533863          4.95
     1.531369          4.38
     1.529140          0.42
     1.524171          0.03
     1.521197         16.40
     1.519536         23.08
     1.518319          5.51
     1.517596         47.68
     1.516993          2.22
     1.510546         43.41
     1.508919          3.02
     1.508788          0.19
     1.507906          5.28
     1.505044         43.95
     1.504574         20.54
     1.501287         25.62
     1.497257          0.82
     1.496620          6.11
     1.496340         19.12
     1.496160          4.83
     1.495663          5.28
     1.495501          1.05
     1.491775          1.53
     1.491272          2.99
     1.487944          4.59
     1.486513          0.34
     1.484158          5.70
     1.483105         14.13
     1.481968         14.93
     1.481306         31.74
     1.479848          0.23
     1.478061          0.22
     1.476822          3.00
     1.476271          6.64
     1.474497          9.97
     1.472321         39.39
     1.472187          1.38
     1.467822          1.98
     1.467445         66.48
     1.467349          0.81
     1.464794          0.03
     1.463881          1.70
     1.460583          7.91
     1.460493          5.57
     1.455950         46.33
     1.455554         10.40
     1.454957          6.93
     1.454780         16.79
     1.452722          0.28
     1.448708         14.58
     1.446761         20.34
     1.445068          6.45
     1.443532         13.90
     1.441833          0.65
     1.436422          0.69
     1.435937          7.23
     1.433727          2.28
     1.432867          1.73
     1.430125         39.59
     1.428978         18.83
     1.422791          0.93
     1.420006          0.04
     1.417010          0.47
     1.415777          7.79
     1.415724          0.05
     1.415465         12.12
     1.415243          3.39
     1.408406         15.84
     1.406184          1.13
     1.405657         11.36
     1.405051          3.94
     1.397810          0.29
     1.397210          2.62
     1.395922          2.95
     1.395516         11.05
     1.394418          5.14
     1.394233          2.02
     1.393933         10.48
     1.392394          5.37
     1.386016          0.29
     1.385007          0.13
     1.380096          1.19
     1.378082          0.11
     1.377196          0.08
     1.375672          0.97
     1.374900          0.05
     1.372410         26.61
     1.372304          2.06
     1.371801         26.53
     1.371158          2.81
     1.370941          1.57
     1.370167          7.71
     1.368887          0.40
     1.368717          4.84
     1.368593          0.58
     1.365932          4.51
     1.365179          0.43
     1.364700          3.10
     1.364526          0.79
     1.362329          2.25
     1.359053          2.40
     1.357950          1.41
     1.353593          5.38
     1.353116          0.20
     1.351903          0.17
     1.350761          0.17
     1.349848         11.93
     1.349711          2.80
     1.347131          0.24
     1.346534          1.09
     1.344484          2.87
     1.343848          2.19
     1.342662          0.59
     1.338653          2.18
     1.337290          0.49
     1.335579          0.03
     1.334829          1.32
     1.332457         13.12
     1.332242          3.38
     1.331814          0.56
     1.331501          5.17
     1.329202         28.63
     1.328976          0.00
     1.327821         12.48
     1.325193          4.81
     1.325146          0.03
     1.324902          3.96
     1.323296          4.38
     1.321243          0.30
     1.320101         11.12
     1.319087          2.31
     1.317562          1.19
     1.317359          0.34
     1.316926          0.19
     1.315168         10.47
     1.313776          1.14
     1.312834          1.15
     1.312699         19.19
     1.311977          0.03
     1.310024          0.03
     1.307384          2.36
     1.307178          0.00
     1.306613          0.73
     1.306456          0.10
     1.306086          4.82
     1.302422          4.11
     1.301367          2.43
     1.301298          0.00
     1.301163          0.06
     1.300804          2.67
     1.300693          1.29
     1.299720          4.87
     1.298105          3.12
     1.297949          1.42
     1.297046          8.67
     1.295321          0.77
     1.294207          3.53
     1.294086          0.02
     1.292172          0.35
     1.284929          3.60
     1.283802          1.69
     1.283606          2.00
     1.283190          0.11
     1.282757          4.70
     1.280005         10.12
     1.277499         13.23
     1.277382          1.07
     1.276985          0.67
     1.276185          0.24
     1.272150          0.54
     1.271953          2.68
     1.271763          0.04
     1.269733          1.03
     1.268438          4.18
     1.267050          2.10
     1.266741          1.81
     1.265606          4.64
     1.262247          0.85
     1.261875         10.53
     1.261724          0.91
     1.261707          0.16
     1.261387          0.82
     1.260870          0.05
     1.260145          0.22
     1.259606          9.04
     1.257023          0.03
     1.256411          7.97
     1.256043          1.58
     1.255859          0.24
     1.255622          0.70
     1.255474          0.10
     1.255471          0.67
     1.253243          1.39
     1.253240          0.49
     1.251980          0.03
     1.248201          1.33
     1.247714          0.05
     1.246752          0.35
     1.246199          1.11
     1.245841          2.30
     1.245334          2.41
     1.244630          0.39
     1.244257          1.29
     1.244236          8.69
     1.244176          1.47
     1.241104          2.01
     1.239679          1.11
     1.239678         14.85
     1.239608          3.29
     1.239569          0.66
     1.238957          0.56
     1.238580          0.00
     1.237088          0.29
     1.236481          1.14
     1.234606          0.30
     1.234542          9.20
     1.233992          0.05
     1.233356          2.40
     1.233189          7.71
     1.232833          1.34
     1.232605          0.83
     1.231391          0.01
     1.228300          7.06
     1.227891          0.68
     1.227255          0.02
     1.225645          4.99
     1.224357          2.38
     1.222980          3.38
     1.220762          0.01
     1.220683          0.08
     1.220425         10.80
     1.220041          3.56
     1.219873         16.27
     1.218860          0.09
     1.217972          0.89
     1.215090          1.70
     1.214629          0.35
     1.214261          0.46
     1.212455          7.70
     1.211733          3.59
     1.209778          0.35
     1.209513          3.43
     1.208927          0.01
     1.208437          0.03
     1.207559          9.36
     1.206151          0.88
     1.205756          1.39
     1.205006          0.67
     1.204165          0.00
     1.203680          6.49
     1.203196          6.90
     1.200912          4.02
     1.200308          1.67
     1.200279          2.23
     1.199218          0.09
     1.195551          3.33
     1.193070          6.07
     1.192765          0.11
     1.192338          4.73
     1.191843          0.09
     1.191442          0.01
     1.191096          1.50
     1.191020          1.34
     1.190622          2.25
     1.190480          9.85
##############################################################################
###                            Comments                                    ###
##############################################################################
###   Diffraction pattern calculated by Match!. 
###   I/Ic calculated by Match!. 
##############################################################################


