##############################################################################
###               Crystal structure data exported by Match!                ###
##############################################################################
###                           Data published by:                           ###
###                                                                        ###
###               COD (Crystallography Open Database)
##############################################################################
data_9010410
_citation_journal_full    'American Mineralogist'
_citation_journal_volume  '93'
_citation_page_first  '584'
_citation_page_last   '590'
_citation_year  '2008'
_citation_title  'Structure and reactivity of synthetic Co-substituted goethitesLocality: syntheticSample: G10, 10 mol% Co'
loop_
_publ_author_name
  'Alvarez M.'
  'Sileo E. E.'
  'Rueda E. H.'
_chemical_formula_sum  'Co0.1 Fe0.9 H O2'
_chemical_name_mineral  'Goethite'
_symmetry_space_group_name_H-M 'P b n m'
_space_group_IT_number 62
_space_group_crystal_system 'orthorhombic'
loop_
_symmetry_equiv_pos_as_xyz
   'x, y, z'
   '-x, -y, z+0.5'
   'x+0.5, -y+0.5, -z'
   '-x+0.5, y+0.5, -z+0.5'
   '-x, -y, -z'
   'x, y, -z+0.5'
   '-x+0.5, y+0.5, z'
   'x+0.5, -y+0.5, z+0.5'
_cell_length_a        4.58000
_cell_length_b        9.91980
_cell_length_c        3.01020
_cell_angle_alpha    90.0000
_cell_angle_beta     90.0000
_cell_angle_gamma    90.0000
loop_
_atom_site_label
_atom_site_fract_x
_atom_site_fract_y
_atom_site_fract_z
_atom_site_occupancy
_atom_site_B_iso_or_equiv
fe      0.049   -0.145   0.250    0.90000    1.000
co      0.049   -0.145   0.250    0.10000    1.000
o      -0.290   0.198   0.250    1.00000    1.000
o      0.192   0.053   0.250    1.00000    1.000
_cell_measurement_wavelength    1.541874
_cell_measurement_radiation   'x-rays'
_exptl_crystal_density_diffrn    4.330000
loop_
_pd_peak_d_spacing
_pd_peak_intensity
     4.959900        109.71
     4.158194       1000.00
     3.364848        117.76
     2.680919        393.24
     2.573350        233.86
     2.515518         49.10
     2.479950        148.13
     2.438340        629.81
     2.290000         28.98
     2.243476         85.05
     2.231316         29.04
     2.180776        145.77
     2.079097          9.18
     2.002030         37.43
     1.914048         51.93
     1.882603          5.26
     1.820496          9.34
     1.792552        107.77
     1.766030         24.75
     1.710716        315.24
     1.682424         90.81
     1.653300         29.63
     1.596151         66.30
     1.557771        214.68
     1.555082          4.62
     1.508902          4.47
     1.505100         94.55
     1.499486         44.69
     1.468609         27.76
     1.459111         42.36
     1.449117         99.37
     1.440248          4.51
     1.415243         55.97
     1.386065         38.45
     1.381610          0.15
     1.373917         10.69
     1.361568         42.50
     1.353791         49.16
     1.348921         16.96
     1.342181          0.00
     1.340460         16.10
     1.312994         16.08
     1.312418         60.56
     1.300071          0.83
     1.286675         26.89
     1.259008         19.15
     1.257759          8.80
     1.247769          7.73
     1.239975          0.50
     1.238721         22.69
     1.234674          0.34
     1.224536          5.66
     1.219170          2.32
     1.209912          0.17
     1.205042          0.50
     1.196886          0.15
     1.193516         31.17
     1.175585          1.79
     1.159995          2.63
     1.146513         20.06
     1.145000          2.95
     1.137448         26.23
     1.122624          8.10
     1.121738         32.67
     1.121616         10.43
     1.118730          8.50
     1.115658          0.55
     1.112980         11.51
     1.112195          1.41
     1.090388         12.53
     1.081968          4.64
     1.081505          2.09
     1.071606          3.48
     1.065608          2.50
     1.064020          4.69
     1.062276         20.87
     1.051027         17.04
     1.047629         22.53
     1.046120          2.24
     1.039548          1.28
     1.038623          7.52
     1.025201         17.10
     1.019584         21.88
     1.018193         25.89
     1.009544         25.66
     1.006531         31.86
##############################################################################
###                            Comments                                    ###
##############################################################################
###   Diffraction pattern calculated by Match!. 
###   I/Ic calculated by Match!. 
###   Space group has been derived from given symmetry operations. 
##############################################################################


