##############################################################################
###               Crystal structure data exported by Match!                ###
##############################################################################
###                           Data published by:                           ###
###                                                                        ###
###               COD (Crystallography Open Database)
##############################################################################
data_9012694
_citation_journal_full    'Journal of Solid State Chemistry'
_citation_journal_volume  '57'
_citation_page_first  '343'
_citation_page_last   '350'
_citation_year  '1985'
_citation_title  'Monoxyde quadratique PbO alpha(I): Description de la transition structuraleferroelastique Method: Neutron Diffraction T = 2 K Locality: synthetic'
loop_
_publ_author_name
  'Boher P.'
  'Garnier P.'
  'Gavarri J. R.'
  'Hewat A. W.'
_chemical_formula_sum  'O Pb'
_chemical_name_mineral  'Litharge'
_symmetry_space_group_name_H-M 'C m m a'
_space_group_IT_number 67
_space_group_crystal_system 'orthorhombic'
loop_
_symmetry_equiv_pos_as_xyz
   'x, y, z'
   'x+0.5, y+0.5, z'
   '-x, -y+0.5, z'
   '-x+0.5, -y, z'
   'x, -y, -z'
   'x+0.5, -y+0.5, -z'
   '-x, y+0.5, -z'
   '-x+0.5, y, -z'
   '-x, -y, -z'
   '-x+0.5, -y+0.5, -z'
   'x, y+0.5, -z'
   'x+0.5, y, -z'
   '-x, y, z'
   '-x+0.5, y+0.5, z'
   'x, -y+0.5, z'
   'x+0.5, -y, z'
_cell_length_a        5.61240
_cell_length_b        5.60890
_cell_length_c        4.99240
_cell_angle_alpha    90.0000
_cell_angle_beta     90.0000
_cell_angle_gamma    90.0000
loop_
_atom_site_label
_atom_site_fract_x
_atom_site_fract_y
_atom_site_fract_z
_atom_site_occupancy
_atom_site_B_iso_or_equiv
pb      0.000   0.250   0.764    1.00000    0.559
o      0.250   0.000   0.000    1.00000    0.995
_cell_measurement_wavelength    1.541874
_cell_measurement_radiation   'x-rays'
_cell_measurement_temperature    2.000000
_exptl_crystal_density_diffrn    9.433000
loop_
_pd_peak_d_spacing
_pd_peak_intensity
     4.992400         26.45
     3.106017       1000.00
     2.806200        161.88
     2.804450        161.61
     2.496200        113.98
     2.446239          0.03
     2.445080          0.03
     2.112786         10.77
     1.983664        161.43
     1.865089        128.24
     1.864575        128.12
     1.843474          5.51
     1.672176        160.21
     1.671436        159.97
     1.664133          1.60
     1.553008        106.95
     1.534597        111.89
     1.446396          3.08
     1.445917          3.08
     1.431371          4.87
     1.431139          4.87
     1.403100         24.49
     1.402225         24.44
     1.350767          0.79
     1.349986          0.79
     1.278354         62.93
     1.274914          2.84
     1.254814         26.80
     1.254345         26.76
     1.248100         14.27
     1.223120         23.84
     1.222540         23.80
     1.216962          0.08
     1.216534          0.08
     1.213923         49.60
     1.213639         49.56
     1.190574          6.11
     1.168580          1.49
     1.140392         17.38
     1.140275         17.37
     1.121131         44.48
     1.120796         44.44
     1.074844         37.25
     1.074254         37.20
     1.072699          0.90
     1.072308          0.90
     1.056393         34.80
     1.035339         32.25
     1.020908          4.13
     1.020739          4.13
     1.007100          1.04
     1.006615          1.04
##############################################################################
###                            Comments                                    ###
##############################################################################
###   Diffraction pattern calculated by Match!. 
###   I/Ic calculated by Match!. 
###   Space group has been derived from given symmetry operations. 
##############################################################################


