##############################################################################
###               Crystal structure data exported by Match!                ###
##############################################################################
###                           Data published by:                           ###
###                                                                        ###
###               COD (Crystallography Open Database)
##############################################################################
data_9001506
_citation_journal_full    'American Mineralogist'
_citation_journal_volume  '78'
_citation_page_first  '187'
_citation_page_last   '189'
_citation_year  '1993'
_citation_title  'Tolbachite, CuCl2, the first example of Cu2+ octahedrally coordinated by Cl'
loop_
_publ_author_name
  'Burns P. C.'
  'Hawthorne F. C.'
_chemical_formula_sum  'Cl2 Cu'
_chemical_name_mineral  'Tolbachite'
_symmetry_space_group_name_H-M 'C 1 2/m 1'
_space_group_IT_number 12
_space_group_crystal_system 'monoclinic'
loop_
_symmetry_equiv_pos_as_xyz
   'x, y, z'
   'x+0.5, y+0.5, z'
   '-x, y, -z'
   '-x+0.5, y+0.5, -z'
   '-x, -y, -z'
   '-x+0.5, -y+0.5, -z'
   'x, -y, z'
   'x+0.5, -y+0.5, z'
_cell_length_a        6.90380
_cell_length_b        3.29950
_cell_length_c        6.82400
_cell_angle_alpha    90.0000
_cell_angle_beta    122.1970
_cell_angle_gamma    90.0000
loop_
_atom_site_label
_atom_site_fract_x
_atom_site_fract_y
_atom_site_fract_z
_atom_site_occupancy
_atom_site_B_iso_or_equiv
cu      0.000   0.000   0.000    1.00000    0.499
cl      0.505   0.000   0.229    1.00000    1.000
_cell_measurement_wavelength    1.541874
_cell_measurement_radiation   'x-rays'
_exptl_crystal_density_diffrn    3.395000
loop_
_pd_peak_d_spacing
_pd_peak_intensity
     5.774613       1000.00
     3.450146        317.92
     3.004239          0.03
     2.921071        582.34
     2.892123        191.83
     2.887306          0.00
     2.872965          0.24
     2.370681        582.83
     2.339342        120.34
     2.249813         21.79
     2.180302         67.45
     1.924871         16.22
     1.869984        251.24
     1.854487         43.67
     1.837149        127.04
     1.812842        231.80
     1.725073          0.53
     1.712092        105.26
     1.704227         80.07
     1.677069          0.32
     1.667536          7.14
     1.658615          0.22
     1.649750         83.15
     1.638633         33.14
     1.586284         48.65
     1.502119         47.29
     1.488350         41.75
     1.480378          1.89
     1.460535         51.17
     1.451538          1.36
     1.446062          0.50
     1.443653         43.24
     1.442923         25.02
     1.436483         96.29
     1.434711         45.76
     1.432414          0.38
     1.347144         25.93
     1.330399          7.12
     1.316904          4.66
     1.315582         21.03
     1.305507         24.08
     1.269583         34.88
     1.264781          8.09
     1.261477         53.27
     1.258448          2.32
     1.252628          6.55
     1.226250         51.14
     1.219525          1.09
     1.198329          7.20
     1.192289          0.27
     1.185341         38.89
     1.184345          2.22
     1.172787          3.63
     1.172564          0.42
     1.169671          0.11
     1.162599         17.44
     1.154923         13.67
     1.150049          1.40
     1.134848         15.48
     1.129139          1.19
     1.124907          0.92
     1.121074          0.13
     1.110692         30.03
     1.105852          0.70
     1.101407          0.06
     1.093560         34.68
     1.090151          0.03
     1.086420         30.06
     1.084832         15.40
     1.081858          6.59
     1.080847          0.04
     1.080317         12.84
     1.074248         22.83
     1.056897          7.00
     1.048436         13.47
     1.046691         29.70
     1.043950          6.75
     1.043453         21.18
     1.029210          3.85
     1.023742         21.30
     1.022608         19.03
##############################################################################
###                            Comments                                    ###
##############################################################################
###   Diffraction pattern calculated by Match!. 
###   I/Ic calculated by Match!. 
###   Space group has been derived from given symmetry operations. 
##############################################################################


