##############################################################################
###               Crystal structure data exported by Match!                ###
##############################################################################
###                           Data published by:                           ###
###                                                                        ###
###               COD (Crystallography Open Database)
##############################################################################
data_9015403
_citation_journal_full    'Physics and Chemistry of Minerals'
_citation_journal_volume  '39'
_citation_page_first  '399'
_citation_page_last   '412'
_citation_year  '2012'
_citation_title  'Crystal-structure properties and the molecular nature ofhydrostatically compressed realgarNote: P = 2.82 GPa'
loop_
_publ_author_name
  'Hejny C.'
  'Sagl R.'
  'Tobbens D. M.'
  'Miletich R.'
  'Wildner M.'
  'Nasdala L.'
  'Ullrich A.'
  'Balic-Zunic T'
_chemical_formula_sum  'As S'
_chemical_name_mineral  'Realgar'
_symmetry_space_group_name_H-M 'P 1 21/n 1'
_space_group_IT_number 14
_space_group_crystal_system 'monoclinic'
loop_
_symmetry_equiv_pos_as_xyz
   'x, y, z'
   '-x+0.5, y+0.5, -z+0.5'
   '-x, -y, -z'
   'x+0.5, -y+0.5, z+0.5'
_cell_length_a        8.87600
_cell_length_b       12.88700
_cell_length_c        6.27200
_cell_angle_alpha    90.0000
_cell_angle_beta    106.8500
_cell_angle_gamma    90.0000
loop_
_atom_site_label
_atom_site_fract_x
_atom_site_fract_y
_atom_site_fract_z
_atom_site_occupancy
_atom_site_B_iso_or_equiv
as      0.111   -0.027   0.757    1.00000    1.587
as      0.432   0.136   0.854    1.00000    1.618
as      0.327   0.127   0.188    1.00000    1.508
as      0.032   0.163   0.703    1.00000    1.602
s      0.341   -0.016   0.688    1.00000    1.571
s      0.210   -0.029   0.125    1.00000    1.689
s      0.239   0.230   0.625    1.00000    1.776
s      0.108   0.218   0.057    1.00000    1.926
_cell_measurement_wavelength    1.541874
_cell_measurement_radiation   'x-rays'
_exptl_crystal_density_diffrn    4.140000
loop_
_pd_peak_d_spacing
_pd_peak_intensity
     7.092599        106.65
     6.443500         56.57
     5.750453        494.00
     5.441379        409.91
     5.251362        284.65
     5.133750       1000.00
     4.392132         80.59
     4.344587          3.03
     4.290363         16.34
     4.247463         11.19
     4.116925          3.61
     4.034001         84.34
     3.878840        260.17
     3.833421         62.34
     3.602243         56.33
     3.546300         72.11
     3.493322         53.88
     3.441460          1.40
     3.439501        142.33
     3.221750          9.70
     3.054644         47.66
     3.040776         21.62
     3.020308        523.57
     3.012383        384.42
     3.001362        606.89
     2.988854         55.86
     2.953510          8.74
     2.923131        107.11
     2.906657        512.35
     2.875227          0.10
     2.838725        322.87
     2.835429         84.93
     2.814777        366.04
     2.810684          0.26
     2.806230        231.93
     2.773442        735.45
     2.765665         34.74
     2.720690        139.47
     2.649553        176.05
     2.625681         16.23
     2.592363        141.99
     2.587852        584.92
     2.566875        136.78
     2.551328        213.24
     2.529238          5.04
     2.525492        124.36
     2.499122          3.16
     2.466378        266.86
     2.460319         68.87
     2.413382         26.79
     2.407337         58.22
     2.400532        172.99
     2.389390         31.52
     2.368318         12.16
     2.364200        163.31
     2.351961        215.76
     2.315114         93.19
     2.284568        154.03
     2.278636         76.47
     2.244660        117.23
     2.226084          6.79
     2.223529         36.59
     2.216682          4.29
     2.203455         15.32
     2.196066         21.55
     2.182096          3.08
     2.178751         53.51
     2.177111          0.32
     2.172293         31.28
     2.158141          1.27
     2.147833        122.97
     2.145182          0.04
     2.142074          0.91
     2.126897         71.45
     2.123792        143.14
     2.123732         15.88
     2.095468         16.93
     2.093902         60.44
     2.087307        146.20
     2.082307        173.26
     2.060454         87.46
     2.058462         37.72
     2.037982         11.63
     2.033728        133.61
     2.028559        171.45
     2.024658          2.40
     2.022277         18.97
     2.017001         73.27
     2.012065         48.26
     2.008867         41.50
     1.989427          2.36
     1.985718          0.04
     1.977217         27.81
     1.974671          0.42
     1.968035         14.86
     1.957122         69.86
     1.955361          0.35
     1.946782         50.46
     1.939420         47.41
     1.938523         14.13
     1.928445          6.37
     1.925397          0.16
     1.919182          0.05
     1.916818         58.85
     1.916710         52.06
     1.910894         13.25
     1.906056         10.71
     1.903777          0.03
     1.899295         22.98
     1.895960         12.76
     1.880052         37.84
     1.877405         21.49
     1.853183          9.43
     1.838133          0.33
     1.837247          5.53
     1.832666         23.65
     1.831427         63.02
     1.824718          4.68
     1.822804          0.19
     1.814410         15.70
     1.813793          6.83
     1.801121          4.64
     1.799233         18.24
     1.796164          1.24
     1.775155         53.60
     1.773185          6.46
     1.773150         11.51
     1.770814         98.58
     1.770447         67.92
     1.762753        111.86
     1.760384        160.16
     1.760082          7.70
     1.758550         42.19
     1.753337          1.37
     1.751784         13.49
     1.750454          7.11
     1.746661         92.85
     1.746007         35.01
     1.732057          1.02
     1.727397        121.21
     1.722320          0.00
     1.720730         10.80
     1.719751         32.69
     1.712256         16.10
     1.711397        119.78
     1.711250         39.52
     1.699768         44.58
     1.695094          7.61
     1.692392        122.76
     1.690849          1.07
     1.689157          0.21
     1.685667         35.73
     1.684410          7.30
     1.679477         86.89
     1.677201         11.22
     1.671006         28.09
     1.668640          1.41
     1.661024         17.59
     1.656630         37.36
     1.648809          4.15
     1.647308         69.73
     1.642836         22.06
     1.640592         41.75
     1.639008          7.89
     1.623415         27.95
     1.622090        147.37
     1.613149        103.76
     1.610875         48.66
     1.606390          9.63
     1.602811         44.07
     1.598643          2.11
     1.596558         41.92
     1.592972        168.77
     1.586747          3.51
     1.586099        122.95
     1.585211         48.26
     1.582671         30.21
     1.580581          4.34
     1.580531         51.29
     1.579902         15.79
     1.579229          0.62
     1.574568         26.57
     1.569300          4.20
     1.564566         24.60
     1.555827          0.35
     1.555284         17.10
     1.554768         73.79
     1.553161          4.00
     1.551162          2.24
     1.550412         36.70
     1.545900          6.02
     1.543467         26.75
     1.541631         47.99
     1.538091          0.04
     1.536318         13.31
     1.532717          0.00
     1.529243          2.62
     1.527322         14.86
     1.525516          0.85
     1.523160         15.85
     1.522499         29.68
     1.521990          7.46
     1.520388          2.37
     1.513574          1.70
     1.512631         62.54
     1.510396          5.66
     1.510389          2.67
     1.510154          0.48
     1.507391          4.99
     1.506191          6.39
     1.503031          2.44
     1.502823          7.46
     1.500681          0.27
     1.498254         31.45
     1.497696          0.27
     1.496889         33.94
     1.494427         58.69
     1.493582          0.76
     1.491112          4.44
     1.490608          8.09
     1.484525         16.88
     1.483355          0.66
     1.482308          9.22
     1.480198         10.58
     1.476755         16.69
     1.470333         32.85
     1.470093          2.05
     1.467378          1.27
     1.464044          1.90
     1.463931          0.28
     1.461956          5.17
     1.461565          8.95
     1.459025          9.67
     1.453329          2.82
     1.448196          4.51
     1.446585          3.71
     1.444174         29.26
     1.443578          7.15
     1.440941         33.71
     1.439647         52.93
     1.439137          0.08
     1.437613         68.48
     1.435585          8.06
     1.435032          1.69
     1.433668          8.30
     1.432232          2.69
     1.430121         25.05
     1.428751         29.82
     1.426697         51.60
     1.422359          9.88
     1.419363         13.50
     1.418520          1.07
     1.417715          6.38
     1.416718          6.27
     1.415821          0.34
     1.415570          7.09
     1.412949          2.04
     1.411971         15.38
     1.408967          2.44
     1.407389         26.85
     1.407353          0.21
     1.405342          1.56
     1.404467         24.67
     1.403115          6.51
     1.401979          1.80
     1.401110         48.72
     1.400164          1.71
     1.397930          1.57
     1.396729         35.34
     1.394133          0.09
     1.392811          3.79
     1.391083          0.12
     1.389461          3.28
     1.386721         74.39
     1.385804          0.06
     1.384071         23.70
     1.382833          1.25
     1.381512          3.23
     1.380695         14.03
     1.377022         53.31
     1.376909         14.21
     1.376674         17.91
     1.375330         38.07
     1.372308          0.22
     1.370974         11.91
     1.369768         12.41
     1.368308          0.22
     1.364847          0.63
     1.363294          1.64
     1.360345          5.78
     1.359933          6.93
     1.356861         49.86
     1.354793         17.83
     1.350641          5.82
     1.348377          0.95
     1.346158          1.11
     1.344881          5.96
     1.344667          0.15
     1.342619          3.56
     1.339219          5.55
     1.337437         14.65
     1.335681         12.10
     1.332792          4.31
     1.332500          1.69
     1.327778          3.14
     1.326766         10.82
     1.325559          5.76
     1.324776          2.14
     1.322279          7.14
     1.320885          1.01
     1.319663          8.57
     1.317378          0.01
     1.316296         24.39
     1.312840          0.28
     1.311295          0.24
     1.309834          0.66
     1.305010          5.04
     1.302592          9.82
     1.302042         36.06
     1.301896          0.23
     1.301684          2.35
     1.301423          0.36
     1.298827          0.40
     1.297878          0.96
     1.296870         15.63
     1.296182          6.45
     1.296168         16.07
     1.294837          1.82
     1.293926          4.60
     1.292947          5.12
     1.292350          3.75
     1.292084          0.02
     1.291299          2.07
     1.290078          6.99
     1.288700          7.56
     1.284488          0.09
     1.283437          5.92
     1.281739         26.95
     1.281484          0.17
     1.277868          5.23
     1.277807          0.44
     1.276254          0.18
     1.275664          0.99
     1.275265          0.63
     1.274122          0.90
     1.272787          2.85
     1.271112          0.83
     1.267594          4.32
     1.265942         19.97
     1.264619          0.05
     1.264581          5.63
     1.262746         34.37
     1.262710          5.33
     1.262545          0.35
     1.260690          0.33
     1.259991         25.91
     1.259770          4.48
     1.257882          8.13
     1.257509          5.26
     1.256692          3.21
     1.255515         18.71
     1.254772          8.31
     1.254578          1.58
     1.253061          5.14
     1.251171          2.53
     1.249669          2.94
     1.249561          3.03
     1.248555          0.37
     1.248464         25.46
     1.247621          1.72
     1.245518          0.94
     1.242450          3.27
     1.242264          0.16
     1.241280         16.32
     1.241207         11.14
     1.240920          0.02
     1.239559          4.93
     1.239141          3.55
     1.236634          0.07
     1.236532          0.17
     1.235659          6.14
     1.235493          1.97
     1.235373          2.36
     1.233864          4.78
     1.233218          3.25
     1.233189          4.14
     1.231439          0.29
     1.231251         21.61
     1.230159          2.66
     1.228951          3.51
     1.228514          4.94
     1.224002          0.07
     1.223097          0.61
     1.221648          1.65
     1.219801          2.61
     1.217786         14.70
     1.217240          1.24
     1.217004         13.35
     1.216195         27.33
     1.212397         20.65
     1.211455          5.17
     1.209918          7.43
     1.208216          0.00
     1.208202          0.03
     1.206691          2.19
     1.204462          4.71
     1.204080          5.84
     1.203827          6.12
     1.203669          3.65
     1.202836          0.32
     1.202355          4.39
     1.200748          4.00
     1.200266          1.36
     1.200233         13.12
     1.199925          0.02
     1.198609          1.99
     1.195529          3.09
     1.195369          0.64
     1.194695          8.07
     1.193364          1.58
     1.192921          2.62
     1.192594         22.22
     1.192195          1.56
     1.191608          1.05
     1.191601          0.15
     1.190966          2.62
     1.188901          0.14
     1.188408          0.47
     1.187242          0.94
     1.185775          0.15
     1.184915          2.29
     1.184159          4.30
     1.183759         11.27
     1.183352          3.74
     1.182100          1.18
     1.180764          1.75
     1.180234          6.65
     1.179554          0.74
     1.178393          0.00
     1.178158          9.07
     1.178102          5.66
     1.177922          1.26
     1.177148          3.93
     1.175980          0.01
     1.175639          0.00
     1.175053         13.93
     1.174666          1.56
     1.173567          6.59
     1.172941          1.34
     1.172664          0.30
     1.172519          0.23
     1.171115          3.49
     1.170997         36.34
     1.170806          0.00
     1.168969         10.07
     1.168894          0.37
     1.167852          7.71
     1.164441          3.14
     1.163193          0.20
     1.161725          8.61
     1.160638         16.10
     1.160561          4.59
     1.159169          0.20
     1.159084         24.60
     1.158284          0.63
     1.157557         10.64
     1.156886          3.96
     1.156238          0.02
     1.154898          2.04
     1.152915          0.01
     1.152052          0.15
     1.150091          0.06
     1.149851          7.08
     1.148248          3.70
     1.147997          8.01
     1.147964          4.08
     1.147549          2.02
     1.147153         10.36
     1.146500          6.20
     1.145538          6.87
     1.143685          1.64
     1.142284          3.13
     1.142024          0.41
     1.140720          4.56
     1.139864          4.69
     1.139318          0.29
     1.139208          1.06
     1.138233         13.28
     1.137566          2.64
     1.135665          0.00
     1.133939          8.47
     1.133074          0.04
     1.132374         15.67
     1.132197          0.73
     1.131269          0.33
     1.131142          9.98
     1.130338         12.51
     1.129373          9.39
     1.129028          2.09
     1.128328          4.73
##############################################################################
###                            Comments                                    ###
##############################################################################
###   Baia Sprie mine, Romania
###   Diffraction pattern calculated by Match!. 
###   I/Ic calculated by Match!. 
##############################################################################


