##############################################################################
###               Crystal structure data exported by Match!                ###
##############################################################################
###                           Data published by:                           ###
###                                                                        ###
###               COD (Crystallography Open Database)
##############################################################################
data_9005796
_citation_journal_full    'Physics and Chemistry of Minerals'
_citation_journal_volume  '13'
_citation_page_first  '146'
_citation_page_last   '151'
_citation_year  '1986'
_citation_title  'High temperature X-ray study of single crystal stishovitesynthesized with Li2WO4 as fluxSample: T = 27 C'
loop_
_publ_author_name
  'Endo S.'
  'Akai T.'
  'Akahama Y.'
  'Wakatsuki M.'
  'Nakamura T.'
  'Tomii Y.'
  'Koto K.'
  'Ito Y.'
  'Tokonami M.'
_chemical_formula_sum  'O2 Si'
_chemical_name_mineral  'Stishovite'
_symmetry_space_group_name_H-M 'P 42/m n m'
_space_group_IT_number 136
_space_group_crystal_system 'tetragonal'
loop_
_symmetry_equiv_pos_as_xyz
   'x, y, z'
   '-y+0.5, x+0.5, z+0.5'
   '-x, -y, z'
   'y+0.5, -x+0.5, z+0.5'
   'x+0.5, -y+0.5, -z+0.5'
   '-x+0.5, y+0.5, -z+0.5'
   'y, x, -z'
   '-y, -x, -z'
   '-x, -y, -z'
   'y+0.5, -x+0.5, -z+0.5'
   'x, y, -z'
   '-y+0.5, x+0.5, -z+0.5'
   '-x+0.5, y+0.5, z+0.5'
   'x+0.5, -y+0.5, z+0.5'
   '-y, -x, z'
   'y, x, z'
_cell_length_a        4.18110
_cell_length_b        4.18110
_cell_length_c        2.66650
_cell_angle_alpha    90.0000
_cell_angle_beta     90.0000
_cell_angle_gamma    90.0000
loop_
_atom_site_label
_atom_site_fract_x
_atom_site_fract_y
_atom_site_fract_z
_atom_site_occupancy
_atom_site_B_iso_or_equiv
si      0.000   0.000   0.000    1.00000    0.180
o      0.306   0.306   0.000    1.00000    0.259
_cell_measurement_wavelength    1.541874
_cell_measurement_radiation   'x-rays'
_cell_measurement_temperature    300.100000
_exptl_crystal_density_diffrn    4.281000
loop_
_pd_peak_d_spacing
_pd_peak_intensity
     2.956484       1000.00
     2.248210        250.63
     2.090550          6.81
     1.980106        400.17
     1.869845        148.82
     1.530947        586.87
     1.478242        197.67
     1.333250        101.73
     1.322180         63.57
     1.292863         13.04
     1.235161        267.22
     1.215383        104.09
     1.184554         22.11
     1.159628          4.77
     1.124105         11.44
     1.085556         26.67
     1.063420         29.92
     1.045275         36.51
     1.014066         25.51
##############################################################################
###                            Comments                                    ###
##############################################################################
###   Diffraction pattern calculated by Match!. 
###   I/Ic calculated by Match!. 
###   Space group has been derived from given symmetry operations. 
##############################################################################


