##############################################################################
###               Crystal structure data exported by Match!                ###
##############################################################################
###                           Data published by:                           ###
###                                                                        ###
###               COD (Crystallography Open Database)
##############################################################################
data_1008046
_citation_journal_full    'Zeitschrift fuer Kristallographie, Kristallgeometrie, Kristallphysik, Kristallchemie (-144,1977)'
_citation_journal_volume  '136'
_citation_page_first  '98'
_citation_page_last   '105'
_citation_year  '1972'
_citation_title  'Vacancies ordering in new metastable orthophosphates (Co~3~ ) P~2~ O~8~ and (Mg~3~ ) P~2~ O~8~ with olivin-related structure'
loop_
_publ_author_name
  'Berthet G'
  'Joubert J C'
  'Bertaut E F'
_chemical_formula_sum  'Co3 O8 P2'
_chemical_name_common  'Cobalt phosphate'
_symmetry_space_group_name_H-M 'P 1 1 21/b'
_space_group_IT_number 14
_space_group_crystal_system 'monoclinic'
loop_
_symmetry_equiv_pos_as_xyz
   'x, y, z'
   '-x, -y+0.5, z+0.5'
   '-x, -y, -z'
   'x, y+0.5, -z+0.5'
_cell_length_a        5.92000
_cell_length_b       10.33400
_cell_length_c        4.75000
_cell_angle_alpha    90.0000
_cell_angle_beta     90.0000
_cell_angle_gamma    91.0700
_cell_formula_units_Z 2
loop_
_atom_site_label
_atom_site_fract_x
_atom_site_fract_y
_atom_site_fract_z
_atom_site_occupancy
_atom_site_B_iso_or_equiv
co      0.500   0.000   0.000    1.00000    1.000
co      0.227   0.278   -0.017    1.00000    1.000
p      0.277   0.100   0.430    1.00000    1.000
o      0.279   0.081   -0.258    1.00000    1.000
o      0.246   0.462   0.193    1.00000    1.000
o      0.096   0.168   0.298    1.00000    1.000
o      0.493   0.139   0.258    1.00000    1.000
_cell_measurement_wavelength    1.541874
_cell_measurement_radiation   'x-rays'
_exptl_crystal_density_diffrn    4.192000
loop_
_pd_peak_d_spacing
_pd_peak_intensity
     5.918968        410.58
     5.166099          3.88
     4.315775         63.32
     3.928633         62.12
     3.856603        655.14
     3.704596         61.68
     3.500239         26.70
     3.496620        115.75
     3.474341       1000.00
     3.027348         30.89
     2.994019          4.65
     2.959484        282.15
     2.788264        536.46
     2.588896         65.49
     2.583049         42.99
     2.547523        134.80
     2.537233        784.60
     2.511837         14.42
     2.507828        193.75
     2.449675        519.77
     2.431915        158.89
     2.383808         52.24
     2.375000         88.38
     2.351391        108.72
     2.314637         61.92
     2.273185         47.92
     2.269224         98.99
     2.245024         28.83
     2.204179         16.02
     2.158738         23.69
     2.157888         40.16
     2.152620         48.01
     2.130560          0.03
     2.107321          3.91
     2.044921          1.50
     2.032467        108.49
     2.022289         13.61
     2.014290          1.24
     1.972989         50.76
     1.964316          8.78
     1.955188          0.29
     1.928302          0.02
     1.894891          1.48
     1.862412          1.85
     1.854726          1.48
     1.852298         41.62
     1.850689          0.47
     1.831780          0.00
     1.826944          6.89
     1.822061          2.27
     1.819541         10.80
     1.815223          6.60
     1.813709          0.01
     1.799689        164.56
     1.795761        197.39
     1.789104          2.28
     1.786689          0.91
     1.750120        162.44
     1.748310        144.62
     1.737170        294.24
     1.727690          0.32
     1.722033          2.17
     1.709098         31.67
     1.682484          7.91
     1.670969        130.44
     1.661821        105.08
     1.645256         30.91
     1.639342          0.01
     1.623433          0.36
     1.622166         12.08
     1.618928         12.45
     1.608367         69.54
     1.599201        186.36
     1.583545         19.93
     1.582246         99.67
     1.568594          0.04
     1.565064         17.45
     1.558949          1.10
     1.554640         12.97
     1.553992          0.93
     1.529554          1.60
     1.517632         17.19
     1.514123          9.75
     1.513829         10.22
     1.513674         17.43
     1.512795          6.76
     1.512007         88.73
     1.504631          3.43
     1.502333         10.38
     1.501153          2.30
     1.500634         56.54
     1.498429          4.70
     1.497009          0.25
     1.479742        100.60
     1.476961          0.01
     1.476466         73.63
     1.468552          9.46
     1.464699         11.32
     1.461791          2.12
     1.450478          0.60
     1.438592         35.63
     1.430924          0.50
     1.429621         13.81
     1.415557          5.43
     1.412776          0.58
     1.409924          2.10
     1.409543         85.30
     1.403113         18.72
     1.400405         84.21
     1.396413         19.01
     1.396198          7.15
     1.396090          6.45
     1.395400          7.67
     1.394132          3.73
     1.387371          1.12
     1.385137         33.61
     1.381903          1.04
     1.381475          0.02
     1.378510          9.08
     1.376742          2.13
     1.371345          0.28
     1.368962          1.34
     1.365721          9.26
     1.361600         67.18
     1.356597          0.48
     1.355123         12.24
     1.352443          2.38
     1.350744         32.32
     1.349911          8.51
     1.344764         25.94
     1.318911         11.15
     1.316786         71.81
     1.315339         33.09
     1.313342         17.61
     1.309544          2.85
     1.300366          7.38
     1.298973         14.12
     1.297818          4.69
     1.294448          4.62
     1.291525          5.45
     1.289881          0.00
     1.285534         46.78
     1.281479         17.34
     1.273761          8.90
     1.268617         10.72
     1.266772          2.69
     1.263857          1.73
     1.262445          0.02
     1.256956         10.30
     1.256819          0.00
     1.255919         30.64
     1.253914         24.43
     1.253646          4.76
     1.249115          0.01
     1.248904          0.45
     1.246278          0.03
     1.244382          4.97
     1.240893          0.71
     1.234865          2.82
     1.232730          2.50
     1.232256          0.56
     1.231662          5.01
     1.230401          0.01
     1.230294          1.08
     1.227831         25.14
     1.226582         16.22
     1.224838          1.07
     1.224454          0.18
     1.223992          0.08
     1.223679          0.14
     1.222514          1.19
     1.215958          7.50
     1.215131          0.03
     1.214895          4.34
     1.204217         12.58
     1.197869          0.40
     1.191904         10.93
     1.187500         27.82
     1.185981          1.28
     1.183794          4.85
     1.179734          5.64
     1.176074          0.13
     1.175696          0.20
     1.173942          0.43
     1.166746          1.55
     1.165540          1.00
     1.164299          4.32
     1.161581         18.67
     1.160981          3.13
     1.158607          8.02
     1.158114         37.92
     1.157450          0.79
     1.157319          1.66
     1.156718         15.99
     1.156696          4.83
     1.156504          0.02
     1.156064          7.47
     1.152126         15.69
     1.149224         12.99
     1.148659          0.59
     1.147829          7.79
     1.146771          6.01
     1.146329          2.96
     1.143904          1.01
     1.141256          1.56
     1.140849          5.54
     1.139361         10.36
     1.137366          4.88
     1.136707         10.18
     1.136593          8.07
     1.134917          2.53
     1.134612         10.81
     1.132812          0.03
     1.130544         14.54
     1.125606          4.41
     1.122641          1.15
     1.122512         22.48
     1.119201          4.30
     1.117719          4.20
     1.116997          0.36
     1.115893          8.25
     1.112089          3.84
     1.110959         17.11
     1.109067         13.48
     1.104209          0.20
     1.102089          0.92
     1.101910          2.99
     1.101750          0.15
     1.100217          0.47
     1.096678          4.02
     1.095628         19.96
     1.095070         15.03
     1.092969          9.29
     1.089959          2.40
     1.089172          0.06
     1.083855          9.99
     1.083775          3.75
     1.082808          1.10
     1.081104          4.14
     1.080875          0.31
     1.079825          0.62
     1.079653         26.37
     1.079369         14.56
     1.078944         11.69
     1.076755          0.02
     1.076310         18.72
     1.073719          9.13
     1.071462          2.87
     1.068630          0.03
     1.065791          0.25
     1.065774          0.08
     1.065516          5.38
     1.065280          0.45
     1.064699          4.61
     1.062917          1.68
     1.062350          0.02
     1.061088          2.60
     1.059995          8.63
     1.059576          0.03
     1.059478          1.52
     1.056695          0.84
     1.055743          2.40
     1.055299          3.73
     1.054604          1.58
     1.053661          0.66
     1.052168          0.30
     1.051783          3.71
     1.050596          0.39
     1.050449         31.86
     1.047545          0.02
     1.045201          0.93
     1.042571          0.15
     1.041307         19.69
     1.037934         37.94
     1.035524         24.72
     1.034479         12.76
     1.033602          1.08
     1.033220          4.46
     1.029825         35.45
     1.029603          4.33
     1.027481          5.81
     1.022461          0.91
     1.021108          0.00
     1.021064         17.51
     1.018758          0.98
     1.017436          2.40
     1.017429         10.67
     1.016234          0.83
     1.015967         12.47
     1.015306          0.00
     1.014624          3.72
     1.013484          0.88
     1.012780          7.41
     1.011793          6.50
     1.011642          9.54
     1.011582          0.36
     1.011145          1.91
     1.009836          0.83
     1.009611          0.13
     1.009116          4.80
     1.007923          1.20
     1.007145          0.62
##############################################################################
###                            Comments                                    ###
##############################################################################
###   Diffraction pattern calculated by Match!. 
###   I/Ic calculated by Match!. 
##############################################################################


