##############################################################################
###               Crystal structure data exported by Match!                ###
##############################################################################
###                           Data published by:                           ###
###                                                                        ###
###               COD (Crystallography Open Database)
##############################################################################
data_9012335
_citation_journal_full    'Zeitschrift fur Anorganische und Allgemeine Chemie'
_citation_journal_volume  '419'
_citation_page_first  '176'
_citation_page_last   '184'
_citation_year  '1976'
_citation_title  'Darstellung und kristallstruktur einer neuen isomeren form von As4S4Locality: synthetic'
loop_
_publ_author_name
  'Kutoglu A.'
_chemical_formula_sum  'As S'
_chemical_name_mineral  'Pararealgar'
_symmetry_space_group_name_H-M 'P 1 21/n 1'
_space_group_IT_number 14
_space_group_crystal_system 'monoclinic'
loop_
_symmetry_equiv_pos_as_xyz
   'x, y, z'
   '-x+0.5, y+0.5, -z+0.5'
   '-x, -y, -z'
   'x+0.5, -y+0.5, z+0.5'
_cell_length_a       11.19300
_cell_length_b        9.99400
_cell_length_c        7.15300
_cell_angle_alpha    90.0000
_cell_angle_beta     92.8000
_cell_angle_gamma    90.0000
loop_
_atom_site_label
_atom_site_fract_x
_atom_site_fract_y
_atom_site_fract_z
_atom_site_occupancy
_atom_site_B_iso_or_equiv
as      0.500   0.150   0.195    1.00000    3.703
as      0.320   0.351   0.504    1.00000    3.859
as      0.260   0.377   0.040    1.00000    3.976
as      0.417   0.489   0.258    1.00000    3.966
s      0.415   0.157   0.475    1.00000    4.066
s      0.159   0.335   0.302    1.00000    3.899
s      0.349   0.182   -0.016    1.00000    4.133
s      0.572   0.361   0.203    1.00000    4.900
_cell_measurement_wavelength    1.541874
_cell_measurement_radiation   'x-rays'
_exptl_crystal_density_diffrn    3.557000
loop_
_pd_peak_d_spacing
_pd_peak_intensity
     7.450866        184.23
     6.158189        336.23
     5.890981        312.85
     5.812066          4.30
     5.589818          0.65
     5.242791        452.05
     5.074938        541.57
     4.997000         37.17
     4.878569        357.72
     4.562025       1000.00
     4.111334        153.36
     4.094812         16.78
     3.951192          7.56
     3.880254         58.67
     3.810708         18.71
     3.725433         38.19
     3.572230          6.40
     3.491703        131.25
     3.372328          1.61
     3.363805         72.33
     3.348306        421.37
     3.262830         85.14
     3.260086         30.03
     3.239830         90.62
     3.195317         22.45
     3.192606        523.61
     3.181034         14.92
     3.081933        550.17
     3.079095        469.69
     3.019243         43.21
     2.987310        450.11
     2.945490        493.85
     2.942601        519.35
     2.930082         93.52
     2.906033        167.73
     2.899787         20.67
     2.861677          9.26
     2.840182        106.72
     2.825336        211.86
     2.795317        112.90
     2.794909          5.63
     2.785739        142.34
     2.718457         76.36
     2.691635         65.38
     2.679733        218.04
     2.633863        155.90
     2.621395          0.06
     2.558838          0.24
     2.556160          4.09
     2.537469          2.48
     2.498500        232.41
     2.483622         81.92
     2.480602        119.29
     2.441749         40.53
     2.439285          4.24
     2.438349          0.37
     2.436324         25.96
     2.397127         73.76
     2.369969         12.82
     2.364124        145.51
     2.358442          8.50
     2.352764         78.64
     2.339141          0.06
     2.337095        301.92
     2.322582         62.29
     2.316623         18.78
     2.315205          1.34
     2.306381         67.55
     2.300172          3.25
     2.290157          1.85
     2.281012         40.99
     2.278927        199.05
     2.261170          0.78
     2.255347         16.78
     2.248690          8.12
     2.247313         24.70
     2.206642          5.71
     2.200022          0.82
     2.185611         64.55
     2.181986         24.32
     2.177014         43.56
     2.164216          0.04
     2.160509          3.08
     2.150829          6.48
     2.149822          7.44
     2.141155          5.23
     2.128622         35.85
     2.115189         40.66
     2.105025          1.86
     2.104763          2.50
     2.102686        138.74
     2.094088          2.89
     2.075237         24.46
     2.072466         83.61
     2.071042          0.01
     2.059583          1.47
     2.055667         26.85
     2.052730         21.62
     2.047406        110.86
     2.040930          0.07
     2.036860         33.41
     2.030240          3.56
     2.023978          0.18
     2.010753         19.05
     2.008773         10.31
     2.007551        150.86
     2.003994          0.00
     1.985956         12.26
     1.978504         11.76
     1.977536          2.01
     1.975596         29.33
     1.967600          1.89
     1.963660         26.56
     1.940127         65.14
     1.939718         13.45
     1.937355          2.27
     1.926819          3.19
     1.924888         29.03
     1.921797          0.69
     1.905354         52.48
     1.902881        100.63
     1.901164          3.64
     1.898764         30.09
     1.896269          7.58
     1.892814         36.02
     1.882094          5.64
     1.867599          0.38
     1.863273          0.03
     1.862717         61.02
     1.856527         15.94
     1.853461          1.78
     1.831710          3.28
     1.827611         20.06
     1.827421          0.12
     1.826745         78.27
     1.823816        133.62
     1.816961          1.25
     1.816001         12.80
     1.814860         17.11
     1.812672         46.81
     1.808427         76.56
     1.807145          1.15
     1.806943         15.74
     1.795184         60.30
     1.788304         47.37
     1.786115        117.57
     1.779369         12.95
     1.773582          4.77
     1.761423          7.09
     1.758256          2.53
     1.754174         51.41
     1.749869          1.56
     1.747597          7.06
     1.745852         50.62
     1.744308         12.04
     1.743348          0.01
     1.741551        158.07
     1.739012         31.67
     1.729753          4.66
     1.725992          0.81
     1.724227         58.08
     1.723848          0.70
     1.719465          5.04
     1.717229         27.40
     1.714138         23.44
     1.712860        115.44
     1.701108         67.00
     1.700814          6.60
     1.694712          3.74
     1.691646          0.07
     1.686164          0.06
     1.681902          0.49
     1.678328         18.49
     1.677775          1.55
     1.676531         91.34
     1.675378         14.05
     1.674557         50.60
     1.674153          0.00
     1.671320         25.34
     1.668839          0.99
     1.666164          6.06
     1.665667         90.03
     1.663947          1.61
     1.662666          1.82
     1.654621        104.51
     1.653939         33.89
     1.652044          0.92
     1.648429          0.28
     1.647481         22.05
     1.635847          6.20
     1.631415          0.38
     1.631132         17.38
     1.630043          8.29
     1.626190          2.00
     1.625820         19.90
     1.622712          9.24
     1.622164          2.37
     1.620658         38.61
     1.620505          2.96
     1.619915          0.47
     1.609714          3.91
     1.607889          6.42
     1.602828          3.29
     1.600468         78.97
     1.599046          2.23
     1.597659          9.90
     1.596303          8.09
     1.595128         23.48
     1.594479          0.00
     1.591731          0.90
     1.590517         11.90
     1.586077          3.37
     1.585015         10.39
     1.577080         46.68
     1.575633          4.15
     1.575090          7.65
     1.574135          0.51
     1.571919          3.78
     1.571204         71.55
     1.568108         48.59
     1.565535          4.59
     1.563410         42.36
     1.562536          8.01
     1.561435          3.00
     1.560144          0.64
     1.555885         11.63
     1.553286          5.17
     1.549576          0.52
     1.543896          3.59
     1.542661          0.16
     1.540967          8.71
     1.539547          3.46
     1.532514          4.10
     1.531499          0.09
     1.531013          1.14
     1.524605         13.10
     1.523299          0.83
     1.521599          9.14
     1.521280          0.89
     1.520675         30.07
     1.516646          1.70
     1.510492          0.08
     1.509622          3.07
     1.507223         30.62
     1.504430          1.01
     1.502230          0.07
     1.500156         22.15
     1.498462         15.85
     1.495881          2.12
     1.493859          8.81
     1.493655         12.14
     1.493431          0.36
     1.491965         28.78
     1.490959         17.67
     1.490173          7.04
     1.489365          4.77
     1.488587         16.61
     1.486832          4.54
     1.481356         16.72
     1.474018          7.89
     1.473650          0.20
     1.472982          1.99
     1.472745          0.07
     1.471301          0.26
     1.469157         19.85
     1.468366         22.46
     1.465041         12.67
     1.464953          0.02
     1.464164         20.40
     1.457010          2.54
     1.456811          2.81
     1.453017          6.86
     1.450710          0.09
     1.449894         14.63
     1.449378          0.03
     1.448272          1.80
     1.444569          6.33
     1.440143          7.69
     1.439799          0.63
     1.436209          2.96
     1.433634          1.60
     1.432051          5.79
     1.430839          2.11
     1.428200          4.80
     1.426150          0.43
     1.423949          7.05
     1.423731          3.26
     1.420091          7.35
     1.419352          1.33
     1.417690          5.99
     1.416213          0.21
     1.415584          4.37
     1.414508          7.95
     1.412668          0.15
     1.411848          3.04
     1.409784          0.06
     1.409336          4.35
     1.408734         12.78
     1.400776          1.13
     1.400033          0.59
     1.399853          3.72
     1.397659         19.17
     1.397526          0.03
     1.397455          0.00
     1.396272          1.19
     1.394944          3.83
     1.392870          9.25
     1.391497          4.20
     1.390825          0.85
     1.389230          0.00
     1.389170         25.40
     1.387546          9.37
     1.387332          5.27
     1.383990          0.35
     1.383306          3.37
     1.378265          0.01
     1.376743          5.20
     1.374814          6.55
     1.373828          4.92
     1.372335          0.01
     1.371391          6.73
     1.371173         15.30
     1.370445          1.29
     1.364937          4.74
     1.362929          1.41
     1.361159          0.69
     1.360879          0.75
     1.359667          0.49
     1.359463          1.95
     1.359228         13.32
     1.357459          0.03
     1.356567          1.30
     1.356512          2.46
     1.355884          0.00
     1.355780          1.46
     1.355031          0.09
     1.350907          0.49
     1.350336         18.04
     1.348890          9.53
     1.347679          0.53
     1.346987          0.96
     1.346622          0.15
     1.345818          0.86
     1.345660          4.27
     1.345108          7.09
     1.344186          1.03
     1.342450          2.68
     1.339867          0.11
     1.335902          8.59
     1.335761          0.10
     1.334617          0.23
     1.334024         22.02
     1.333218         13.15
     1.332421          0.21
     1.331843          1.93
     1.330066          0.62
     1.328187          2.37
     1.325750          1.31
     1.325328          8.17
     1.323536          0.41
     1.322054          2.52
     1.319987          0.00
     1.319835          0.03
     1.319326          0.03
     1.317505          0.29
     1.317064          0.33
     1.316931          4.19
     1.316869          0.08
     1.315736          0.73
     1.315338          5.87
     1.314744          6.75
     1.314052          8.42
     1.313743          0.17
     1.313191          9.89
     1.312909          4.52
     1.312617          0.75
     1.312081          3.75
     1.311382          0.14
     1.311062          0.01
     1.310698          2.95
     1.310636          0.53
     1.309984          2.16
     1.309132          4.30
     1.306483          0.00
     1.306349          5.92
     1.306141          0.00
     1.301725          0.74
     1.297493          0.96
     1.297436          2.21
     1.295249          3.90
     1.293418          1.67
     1.291360          3.59
     1.288824          1.59
     1.288664          0.87
     1.288279          0.09
     1.287411          1.14
     1.286639          0.38
     1.285066         27.55
     1.284746          0.05
     1.282158          0.05
     1.280368          0.00
     1.279419          3.46
     1.278298          0.12
     1.278080          5.10
     1.276731          0.00
     1.271433          1.10
     1.270236          0.94
     1.269989          0.57
     1.269812          1.25
     1.268886          0.44
     1.268735          1.20
     1.265798          1.79
     1.263305          0.14
     1.261829         10.46
     1.259030          0.11
     1.258504          0.76
     1.258335          5.59
     1.257100          2.39
     1.256592          0.23
     1.256515          8.19
     1.256347          1.14
     1.256274          0.01
     1.255797          0.66
     1.249250          6.97
     1.249157          2.89
     1.247712          1.60
     1.246995          1.97
     1.245151          4.60
     1.243636          0.05
     1.242518          1.11
     1.241971          3.22
     1.241811          1.88
     1.241523          2.42
     1.241099          0.06
     1.240374          0.26
     1.240301          2.35
     1.240261          6.25
     1.239921          4.25
     1.239343          2.66
     1.238579          0.76
     1.238185          0.65
     1.237136          1.76
     1.234038          3.32
     1.232697          0.79
     1.231638          1.58
     1.230579          0.01
     1.230243          1.48
     1.230015          0.11
     1.228825          0.29
     1.227119          5.04
     1.224736         19.87
     1.224522          1.38
     1.224312          1.00
     1.222570          1.19
     1.222390          0.03
     1.222074          0.16
     1.221928          0.38
     1.221471          0.15
     1.221236          9.48
     1.220875          5.87
     1.220565          1.60
     1.219690          7.20
     1.219642          2.53
     1.219174          0.04
     1.218162         16.09
     1.216802          0.69
     1.215362          4.27
     1.213946          0.02
     1.213856          0.61
     1.213171          0.24
     1.211546          1.42
     1.210843          3.65
     1.210625          0.46
     1.209622          1.64
     1.208981          1.29
     1.206673          0.78
     1.206323          1.07
     1.205494          0.79
     1.205000          1.00
     1.203931          2.99
     1.203324          1.29
     1.202488          5.63
     1.201562          0.42
     1.200204          0.11
     1.199684          0.10
     1.198563          0.58
     1.198046          2.17
     1.196819          1.72
     1.196018          0.05
     1.195849          0.18
     1.195136          0.99
     1.193837          0.05
     1.192781          1.38
     1.192176          0.71
     1.192139         20.29
     1.191753          2.93
     1.190743          2.06
     1.189926          0.25
     1.189503          1.73
     1.185691          2.60
##############################################################################
###                            Comments                                    ###
##############################################################################
###   Diffraction pattern calculated by Match!. 
###   I/Ic calculated by Match!. 
##############################################################################


