##############################################################################
###               Crystal structure data exported by Match!                ###
##############################################################################
###                           Data published by:                           ###
###                                                                        ###
###               COD (Crystallography Open Database)
##############################################################################
data_9013592
_citation_journal_full    'American Mineralogist'
_citation_journal_volume  '94'
_citation_page_first  '451'
_citation_page_last   '460'
_citation_year  '2009'
_citation_title  'Molecular conformation and anion configuration variations for As4S4 andAs4Se4 in an anion-substituted solid solution Locality: synthetic Note:S1Se2-11'
loop_
_publ_author_name
  'Kyono A.'
_chemical_formula_sum  'As S0.615 Se0.385'
_chemical_name_mineral  'Realgar'
_symmetry_space_group_name_H-M 'P 1 21/n 1'
_space_group_IT_number 14
_space_group_crystal_system 'monoclinic'
loop_
_symmetry_equiv_pos_as_xyz
   'x, y, z'
   '-x+0.5, y+0.5, -z+0.5'
   '-x, -y, -z'
   'x+0.5, -y+0.5, z+0.5'
_cell_length_a        9.45920
_cell_length_b       13.63450
_cell_length_c        6.65010
_cell_angle_alpha    90.0000
_cell_angle_beta    106.3820
_cell_angle_gamma    90.0000
loop_
_atom_site_label
_atom_site_fract_x
_atom_site_fract_y
_atom_site_fract_z
_atom_site_occupancy
_atom_site_B_iso_or_equiv
as      0.120   -0.020   0.761    1.00000    2.392
as      0.424   0.140   0.859    1.00000    2.321
as      0.323   0.129   0.177    1.00000    2.313
as      0.041   0.161   0.711    1.00000    2.542
s      0.344   -0.008   0.698    0.56390    2.921
se      0.344   -0.008   0.698    0.43600    2.921
s      0.214   -0.024   0.119    0.51700    2.668
se      0.214   -0.024   0.119    0.48300    2.668
s      0.241   0.229   0.640    0.74500    2.802
se      0.241   0.229   0.640    0.25500    2.802
s      0.109   0.214   0.055    0.63400    2.850
se      0.109   0.214   0.055    0.36600    2.850
_cell_measurement_wavelength    1.541874
_cell_measurement_radiation   'x-rays'
_exptl_crystal_density_diffrn    4.037000
loop_
_pd_peak_d_spacing
_pd_peak_intensity
     7.554709         62.30
     6.817250        100.85
     6.089618        361.89
     5.778738        575.34
     5.560238        261.76
     5.450666       1000.00
     4.658303        112.55
     4.639855         63.16
     4.541553         11.86
     4.537591         35.48
     4.392483          0.43
     4.305422         12.24
     4.115917        160.05
     4.063724         15.04
     3.835740         28.50
     3.777355        127.43
     3.701682         55.83
     3.647427         72.44
     3.642282          6.60
     3.408625         18.25
     3.246756          6.51
     3.222413         91.90
     3.211119        380.39
     3.194416          1.27
     3.190967        422.49
     3.190062        436.81
     3.130152          7.85
     3.106176        120.65
     3.091701        435.90
     3.044809          9.94
     3.015156        116.97
     3.006457        174.16
     2.982216        235.38
     2.974371          0.17
     2.971613        203.09
     2.959983        486.61
     2.953246         20.80
     2.889369        152.74
     2.815677        223.49
     2.780119         29.74
     2.765061        157.77
     2.747019        545.49
     2.725333        181.19
     2.718925        230.69
     2.678968          0.75
     2.675309         91.37
     2.662817         28.56
     2.611552        170.69
     2.611056         68.00
     2.569947         16.35
     2.556292         47.71
     2.544360        188.48
     2.529595          0.10
     2.518236        113.52
     2.507474          0.00
     2.488768        177.28
     2.476349         72.31
     2.436489         86.47
     2.421036         92.75
     2.376972         84.81
     2.368198          5.13
     2.365669         13.10
     2.350945          0.86
     2.337309         16.77
     2.329151          1.75
     2.327547         47.59
     2.323393          4.08
     2.319928         15.35
     2.305524          1.99
     2.290029          1.25
     2.287057          1.01
     2.272417        168.50
     2.270776          2.83
     2.268795         24.69
     2.262549         49.29
     2.250155         70.22
     2.238022         26.74
     2.228358         30.47
     2.213966        158.48
     2.204361        104.14
     2.196242         41.36
     2.185343         61.92
     2.174509          1.46
     2.158665        100.27
     2.152711         44.14
     2.151857          6.15
     2.148716        131.95
     2.140688          4.13
     2.132109         35.98
     2.129013         44.69
     2.106293          9.64
     2.105706          0.57
     2.101299         21.17
     2.098416          0.19
     2.092973          1.47
     2.072880         56.12
     2.072803          0.04
     2.066294          5.82
     2.062148         11.48
     2.057958         50.84
     2.045084          7.53
     2.040801          2.96
     2.031862         19.01
     2.031337          0.48
     2.030212          1.87
     2.029919          2.86
     2.029873         32.06
     2.025441         19.06
     2.010877         12.89
     2.007744         10.98
     2.003454         59.18
     1.990364         20.99
     1.962574          9.00
     1.951925          0.56
     1.949896          0.13
     1.949255          1.04
     1.945463          6.36
     1.944873         49.18
     1.939146          4.28
     1.932225         30.54
     1.926246          4.18
     1.919616          3.94
     1.917870          9.20
     1.904416         15.72
     1.892108         23.63
     1.891834         16.44
     1.888677          7.88
     1.877884          0.04
     1.876522        133.02
     1.874566         49.11
     1.873881         21.39
     1.869007        151.94
     1.864966         18.48
     1.862906          7.50
     1.856694          2.35
     1.855197          2.54
     1.853413          6.01
     1.850841         95.42
     1.834074          0.87
     1.833237          0.80
     1.831027        148.40
     1.823713         21.92
     1.822943        190.23
     1.821141          5.28
     1.816889         10.59
     1.814161          6.00
     1.807104        119.40
     1.804320         37.84
     1.799165          1.91
     1.796713          2.74
     1.795955          6.93
     1.793511         33.45
     1.789854          0.03
     1.783581         60.79
     1.783413         19.00
     1.775459         15.79
     1.767822          0.34
     1.766984         20.24
     1.758056         24.75
     1.753937         17.21
     1.751665          8.04
     1.746560         24.01
     1.744075          3.28
     1.744046         70.94
     1.731623         14.25
     1.718796        129.05
     1.708109         70.71
     1.705296          1.28
     1.704312         58.83
     1.700804          8.48
     1.697902         66.52
     1.693859        152.95
     1.692532         37.58
     1.691189         99.36
     1.685589          1.53
     1.685345          3.09
     1.683572         31.34
     1.679531          5.02
     1.676996         36.28
     1.675529          0.06
     1.675030         28.53
     1.674303         39.08
     1.662403         11.23
     1.658183         43.93
     1.654141         70.10
     1.648002         13.09
     1.646577          2.80
     1.646055          4.74
     1.642936          8.72
     1.641246          7.12
     1.640782         27.45
     1.640413          3.99
     1.637671         24.86
     1.636220         51.09
     1.631137          0.80
     1.629668          0.01
     1.629030          5.03
     1.628274          0.37
     1.625395          3.15
     1.623378          9.04
     1.617526         52.19
     1.613967         22.26
     1.612628         21.72
     1.611206          3.12
     1.605915          0.08
     1.605559          7.74
     1.602068          7.26
     1.600336          1.44
     1.599800          0.35
     1.599614          0.94
     1.597208         71.46
     1.596605         19.69
     1.595483         11.16
     1.595031          1.66
     1.594195          7.54
     1.587207          0.47
     1.585772         33.19
     1.585262          0.11
     1.584422         18.18
     1.584227          5.24
     1.581077          5.06
     1.580195          0.09
     1.571609         16.63
     1.567577          6.75
     1.565076         32.10
     1.564404          0.04
     1.557741          0.21
     1.556671         29.86
     1.554389          6.27
     1.553824          7.49
     1.553088          5.49
     1.552958          3.75
     1.552768          1.97
     1.546618          3.47
     1.545851          0.73
     1.545080          5.27
     1.536763          0.06
     1.536010         22.36
     1.534397         56.14
     1.533497          3.96
     1.530954         10.00
     1.530463          2.32
     1.522405         54.74
     1.519791          0.01
     1.518209          3.59
     1.515856          2.83
     1.513851         19.75
     1.513002         29.89
     1.512912         56.81
     1.512530          1.55
     1.510942          1.29
     1.509489          5.63
     1.508290         13.27
     1.507578          3.15
     1.505035          5.88
     1.503308          0.01
     1.503228         22.03
     1.501677          3.86
     1.494267          2.58
     1.492555          6.20
     1.491731         17.16
     1.491453         34.04
     1.491108         27.36
     1.488300          3.03
     1.488007         38.26
     1.487185          0.15
     1.486911          0.11
     1.485807         13.76
     1.484867          8.58
     1.480679          2.85
     1.479992         67.29
     1.477870          1.28
     1.476623          9.81
     1.474982          0.24
     1.473962          2.10
     1.470270          9.78
     1.470135          1.65
     1.469802         49.97
     1.467130         22.57
     1.465384          9.03
     1.464161          0.61
     1.463510         15.40
     1.462394          5.41
     1.456324         25.82
     1.453928          3.36
     1.452231          4.38
     1.451265         13.10
     1.446115          1.39
     1.444685          5.23
     1.443567          4.00
     1.440125          0.50
     1.436973         39.40
     1.436389         19.71
     1.435141          0.02
     1.431160          1.89
     1.429604          4.32
     1.429492          2.62
     1.425497          0.30
     1.424816         10.03
     1.423695         13.07
     1.418187          1.06
     1.416985          9.12
     1.416803         16.05
     1.413201          2.52
     1.408418          0.41
     1.408079          5.29
     1.407838          1.72
     1.407730         12.10
     1.407256          4.12
     1.405416          2.96
     1.404212          6.06
     1.403942          9.14
     1.398488          0.06
     1.396186          0.04
     1.390059          3.83
     1.387327          0.17
     1.386863          0.74
     1.385746         28.03
     1.384901          1.66
     1.384394          0.02
     1.382531          0.88
     1.382390          1.07
     1.381261          2.42
     1.380200          8.51
     1.379461          4.86
     1.378754          1.64
     1.377977         34.11
     1.376800          7.28
     1.375765          0.17
     1.374151          0.41
     1.373509          5.69
     1.373293          1.21
     1.371972          0.05
     1.368471          3.61
     1.363792          0.78
     1.363728          0.02
     1.363450          1.21
     1.362667          5.32
     1.360404          0.03
     1.359462          1.79
     1.358756          2.59
     1.357078          1.74
     1.356334          8.16
     1.354575          0.32
     1.351289          2.86
     1.350507          2.27
     1.348318          0.24
     1.348177          0.16
     1.346775          4.36
     1.345301          0.06
     1.344796         15.13
     1.343775          2.30
     1.341727          1.69
     1.340252          0.00
     1.339484          0.71
     1.337654         29.04
     1.336439          0.04
     1.333871          3.61
     1.333676          3.91
     1.333344         11.00
     1.331408          0.07
     1.330509          3.76
     1.329945          8.46
     1.329661          0.20
     1.329274          8.38
     1.327877          0.69
     1.326890          0.05
     1.326884          0.87
     1.326227         22.02
     1.325792          0.98
     1.323975          0.99
     1.323736          7.73
     1.322686          0.51
     1.322021          0.15
     1.321239          0.02
     1.316125          0.03
     1.315799          1.79
     1.314937          2.65
     1.314590          0.02
     1.314099          4.94
     1.312285          0.10
     1.310036          0.01
     1.309714          1.17
     1.308139          6.46
     1.307654          1.70
     1.307100          0.88
     1.305776          4.26
     1.305528          2.27
     1.305408          8.20
     1.305248          0.68
     1.304283          0.02
     1.300155          4.46
     1.300015          0.01
     1.294927          0.21
     1.294367          1.95
     1.292298          7.77
     1.292263          2.13
     1.291955          3.17
     1.291273          1.44
     1.290633          0.16
     1.289126         11.85
     1.288764          8.59
     1.285388          1.89
     1.284973          0.00
     1.284377          0.03
     1.283806          0.14
     1.280087          1.02
     1.278830          4.62
     1.278580          2.76
     1.278146          2.61
     1.276483          4.25
     1.274544          0.36
     1.273628          7.88
     1.273242          0.80
     1.272744          0.04
     1.272180          0.00
     1.271701          0.88
     1.271060          7.74
     1.270473          3.41
     1.268446          0.87
     1.266252          0.17
     1.265290          0.10
     1.264798         11.24
     1.264184          0.14
     1.263896          2.33
     1.262614          1.17
     1.261035          0.30
     1.260063          0.39
     1.259891          0.16
     1.259338          0.01
     1.259118          0.41
     1.256907          0.68
     1.256180          2.04
     1.255843          0.51
     1.254808          1.67
     1.254243          1.67
     1.253737          1.02
     1.253679          9.42
     1.252551          0.84
     1.252128          0.93
     1.250262          1.06
     1.249600          1.88
     1.249255         15.84
     1.247957          0.16
     1.247524          1.16
     1.247338          5.05
     1.247178          0.44
     1.246722          4.43
     1.245363          9.07
     1.244384          0.00
     1.243285          0.37
     1.243025          0.57
     1.242431          6.76
     1.241623          0.56
     1.241286          0.52
     1.240043          0.66
     1.239038          0.23
     1.238175          6.80
     1.236502          5.29
     1.235970          2.74
     1.234055          0.00
     1.233894          0.02
     1.233101          0.57
     1.231025          0.24
     1.229053         11.03
     1.228522          0.14
     1.228098          2.37
     1.227781         15.07
     1.227517          3.91
     1.224662          2.53
     1.224615          0.23
     1.223833          0.00
     1.223690          1.28
     1.220984          0.23
     1.219521          8.97
     1.218245          2.37
     1.217924          0.01
     1.217149          0.05
     1.216751          4.53
     1.216117          0.50
     1.215809          0.89
     1.214595          3.07
     1.214094         11.43
     1.213094          5.96
     1.212328          0.14
     1.211765          0.21
     1.211220          5.96
     1.210851          4.12
     1.210518          1.12
     1.207531          3.77
     1.206471          2.92
     1.205854          0.11
     1.202715          1.18
     1.201860          0.48
     1.201345          0.53
     1.201165          0.30
     1.200794          5.15
     1.199484          0.01
     1.199157         10.82
     1.198941          0.87
##############################################################################
###                            Comments                                    ###
##############################################################################
###   Diffraction pattern calculated by Match!. 
###   I/Ic calculated by Match!. 
##############################################################################


