##############################################################################
###               Crystal structure data exported by Match!                ###
##############################################################################
###                           Data published by:                           ###
###                                                                        ###
###               COD (Crystallography Open Database)
##############################################################################
data_9008110
_citation_journal_full    'Zeitschrift fur Kristallographie'
_citation_journal_volume  '121'
_citation_page_first  '369'
_citation_page_last   '377'
_citation_year  '1965'
_citation_title  'Reinvestigation of the structure of low cristobaliteLocality: Ellora, Hyderabad, India'
loop_
_publ_author_name
  'Dollase W. A.'
_chemical_formula_sum  'O2 Si'
_chemical_name_mineral  'Cristobalite'
_symmetry_space_group_name_H-M 'P 41 21 2'
_space_group_IT_number 92
_space_group_crystal_system 'tetragonal'
loop_
_symmetry_equiv_pos_as_xyz
   'x, y, z'
   '-y+0.5, x+0.5, z+0.25'
   '-x, -y, z+0.5'
   'y+0.5, -x+0.5, z+0.75'
   'x+0.5, -y+0.5, -z+0.75'
   '-x+0.5, y+0.5, -z+0.25'
   'y, x, -z'
   '-y, -x, -z+0.5'
_cell_length_a        4.97800
_cell_length_b        4.97800
_cell_length_c        6.94800
_cell_angle_alpha    90.0000
_cell_angle_beta     90.0000
_cell_angle_gamma    90.0000
loop_
_atom_site_label
_atom_site_fract_x
_atom_site_fract_y
_atom_site_fract_z
_atom_site_occupancy
_atom_site_B_iso_or_equiv
si      0.300   0.300   0.000    1.00000    0.829
o      0.240   0.103   0.178    1.00000    1.549
_cell_measurement_wavelength    1.541874
_cell_measurement_radiation   'x-rays'
_exptl_crystal_density_diffrn    2.318000
loop_
_pd_peak_d_spacing
_pd_peak_intensity
     4.046590       1000.00
     3.519978          6.65
     3.140008         90.20
     2.848859        111.58
     2.489000        140.51
     2.472584         43.26
     2.343186          0.64
     2.226229          0.00
     2.120060         27.18
     2.099861          1.53
     2.023295         25.61
     1.934769         52.22
     1.874386         53.68
     1.759989          4.66
     1.737000          8.74
     1.706103          0.97
     1.695523         26.27
     1.640026          5.00
     1.613945         41.70
     1.604980         12.88
     1.574182          4.33
     1.570004          3.04
     1.557668          0.28
     1.535271         27.12
     1.497301         30.52
     1.433845         23.61
     1.424429         15.13
     1.401286         14.71
     1.380649          0.00
     1.369467         25.02
     1.354172         10.78
     1.348863          6.05
     1.338430         19.72
     1.301915         23.95
     1.292527          0.35
     1.283037         23.47
     1.244500          1.02
     1.236292          7.92
     1.225004         12.23
     1.213314          1.67
     1.207342         16.00
     1.199844          0.05
     1.189517          2.85
     1.185914         14.38
     1.178805         15.81
     1.173326          3.34
     1.171593          3.38
     1.166440          8.62
     1.156945          4.88
     1.140433          2.32
     1.127885          0.02
     1.113115          0.18
     1.111635          5.97
     1.100004         17.51
     1.099099         11.30
     1.096255          4.57
     1.090632          2.08
     1.080817          3.78
     1.070602          1.42
     1.065363          0.21
     1.060030          5.77
     1.049931          0.29
     1.046669          3.07
     1.041772          3.60
     1.027329          0.28
     1.011647          0.78
##############################################################################
###                            Comments                                    ###
##############################################################################
###   Diffraction pattern calculated by Match!. 
###   I/Ic calculated by Match!. 
###   Space group has been derived from given symmetry operations. 
##############################################################################


