##############################################################################
###               Crystal structure data exported by Match!                ###
##############################################################################
###                           Data published by:                           ###
###                                                                        ###
###               COD (Crystallography Open Database)
##############################################################################
data_1528778
_citation_journal_full    'Private Communication'
_citation_journal_volume  '1'
_citation_page_first  '1'
_citation_page_last   '1'
_citation_year  '2006'
_citation_title  'Structure of beta - Ti O2'
loop_
_publ_author_name
  'Ouhenia S.'
  'Belkhir M.A.'
  'Samah M.'
_chemical_formula_sum  'O2 Ti'
_chemical_name_common  'Titanium(IV) oxide'
_symmetry_space_group_name_H-M 'C 1 2/m 1'
_space_group_IT_number 12
_space_group_crystal_system 'monoclinic'
loop_
_symmetry_equiv_pos_as_xyz
   'x, y, z'
   'x+0.5, y+0.5, z'
   '-x, y, -z'
   '-x+0.5, y+0.5, -z'
   '-x, -y, -z'
   '-x+0.5, -y+0.5, -z'
   'x, -y, z'
   'x+0.5, -y+0.5, z'
_cell_length_a       12.19040
_cell_length_b        3.74850
_cell_length_c        5.52960
_cell_angle_alpha    90.0000
_cell_angle_beta    107.0390
_cell_angle_gamma    90.0000
_cell_formula_units_Z 8
loop_
_atom_site_label
_atom_site_fract_x
_atom_site_fract_y
_atom_site_fract_z
_atom_site_occupancy
_atom_site_B_iso_or_equiv
o      0.142   0.000   0.025    1.00000    1.000
o      0.365   0.000   0.298    1.00000    1.000
ti      0.196   0.000   0.292    1.00000    1.000
o      0.060   0.000   0.360    1.00000    1.000
ti      0.101   0.000   0.701    1.00000    1.000
o      0.266   0.000   0.667    1.00000    1.000
_cell_measurement_wavelength    1.541874
_cell_measurement_radiation   'x-rays'
_exptl_crystal_density_diffrn    4.392000
loop_
_pd_peak_d_spacing
_pd_peak_intensity
     5.827654        410.79
     5.286881        362.57
     4.652390         37.12
     3.568487       1000.00
     3.445348         34.16
     3.089077         13.78
     2.942264        304.18
     2.913827        120.81
     2.841911        114.75
     2.726611         63.92
     2.697590        193.63
     2.643441        355.48
     2.629173        150.18
     2.326195         44.89
     2.284562         76.27
     2.226471         26.04
     2.221591         45.69
     2.179097          3.98
     2.115424         33.36
     2.038451         28.20
     2.026837         13.19
     2.025609        280.10
     1.979520          3.17
     1.942551          9.04
     1.874250        339.91
     1.844324         26.21
     1.843111          0.11
     1.816080          0.28
     1.784244         22.80
     1.766528         25.15
     1.762294        172.48
     1.752381          3.40
     1.738479          3.22
     1.722674          1.06
     1.721096          2.49
     1.718707         11.10
     1.671676         43.87
     1.646405          5.96
     1.639590         26.20
     1.635580          3.60
     1.580770         66.96
     1.579023        208.81
     1.576314         25.13
     1.564603         17.29
     1.550797         39.56
     1.544539         15.99
     1.528939         94.77
     1.526670         53.20
     1.523546          4.83
     1.521681         28.39
     1.517013          0.01
     1.504434          0.13
     1.471132          1.80
     1.459466         18.17
     1.456914          0.48
     1.449014         31.06
     1.423623          0.82
     1.420956          1.39
     1.383774         31.55
     1.379096          4.66
     1.375696        107.12
     1.368168         21.87
     1.363306         34.83
     1.354564         50.36
     1.348795          3.77
     1.343647         24.64
     1.343355         45.38
     1.330548          0.19
     1.321720          4.06
     1.314587         11.72
     1.314147          0.02
     1.309701          0.03
     1.295623         34.70
     1.283885         83.20
     1.281231         28.50
     1.280037          1.99
     1.277321          5.70
     1.272454          1.66
     1.268321          0.66
     1.252531          1.26
     1.250638          0.62
     1.247548         24.93
     1.242381         21.33
     1.224044          1.08
     1.217938          0.27
     1.215544          4.79
     1.214503          0.02
     1.204732          0.11
     1.204713          8.82
     1.201111          4.56
     1.201101         10.02
     1.194821         25.10
     1.189496          9.65
     1.188352         56.32
     1.183446          7.93
     1.182224          3.36
     1.178635          2.25
     1.168305          2.05
     1.165531          6.40
     1.164049         20.52
     1.163098          0.83
     1.157226          1.18
     1.150267          0.48
     1.148449          1.93
     1.142281          1.08
     1.138813          4.47
     1.138159          4.27
     1.137540          5.35
     1.125942          0.78
     1.123094          5.43
     1.113235         24.02
     1.111110          2.87
     1.110795          3.76
     1.109218          0.81
     1.102980          0.04
     1.102494         28.33
     1.101649          0.02
     1.101268          0.20
     1.098465          1.82
     1.092019         20.98
     1.089548          2.24
     1.084953          0.26
     1.080150          3.70
     1.073960          0.04
     1.073561          0.01
     1.070548          0.02
     1.069591          0.12
     1.060487          0.48
     1.058191          2.27
     1.057712         25.97
     1.057376         13.80
     1.056587         17.09
     1.055573          1.30
     1.050055          0.32
     1.049512          1.18
     1.047219          0.75
     1.039529          0.42
     1.037995          0.91
     1.030691          3.71
     1.029692          0.43
     1.024049          0.42
     1.019841          5.11
     1.019622         12.25
     1.019226          0.01
     1.015335          3.42
     1.015128         33.82
     1.013419          9.88
     1.012804          1.53
     1.009292          0.38
     1.009263          4.64
     1.007526          0.59
##############################################################################
###                            Comments                                    ###
##############################################################################
###   Diffraction pattern calculated by Match!. 
###   I/Ic calculated by Match!. 
###   Space group has been derived from given symmetry operations. 
##############################################################################


