##############################################################################
###               Crystal structure data exported by Match!                ###
##############################################################################
###                           Data published by:                           ###
###                                                                        ###
###               COD (Crystallography Open Database)
##############################################################################
data_7226351
_citation_journal_full    'RSC Adv.'
_citation_year  '2016'
_citation_title  'Facile, ethylene glycol-promoted microwave-assisted solvothermalsynthesis of high-performance LiCoPO4as a high-voltage cathode materialfor lithium-ion batteries'
loop_
_publ_author_name
  'Ludwig Jennifer'
  'Marino Cyril'
  'Haering Dominik'
  'Stinner Christoph'
  'Nordlund Dennis'
  'Doeff Marca'
  'Gasteiger Hubert A.'
  'Nilges Tom'
_chemical_formula_sum  'Co Li O4 P'
_chemical_name_common  'Lithium cobalt phosphate'
_symmetry_space_group_name_H-M 'P n m a'
_space_group_IT_number 62
_space_group_crystal_system 'orthorhombic'
loop_
_symmetry_equiv_pos_as_xyz
   'x, y, z'
   '-x+0.5, -y, z+0.5'
   'x+0.5, -y+0.5, -z+0.5'
   '-x, y+0.5, -z'
   '-x, -y, -z'
   'x+0.5, y, -z+0.5'
   '-x+0.5, y+0.5, z+0.5'
   'x, -y+0.5, z'
_cell_length_a       10.19310
_cell_length_b        5.91950
_cell_length_c        4.69610
_cell_angle_alpha    90.0000
_cell_angle_beta     90.0000
_cell_angle_gamma    90.0000
_cell_formula_units_Z 4
loop_
_atom_site_label
_atom_site_fract_x
_atom_site_fract_y
_atom_site_fract_z
_atom_site_occupancy
_atom_site_B_iso_or_equiv
li      0.000   0.000   0.000    1.00000    1.097
co      0.221   0.250   0.522    1.00000    0.686
p      0.404   0.250   0.083    1.00000    0.284
o      0.405   0.250   0.770    1.00000    0.236
o      0.044   0.250   0.294    1.00000    0.236
o      0.337   0.049   0.216    1.00000    0.236
_cell_measurement_wavelength    1.541874
_cell_measurement_radiation   'x-rays'
_cell_measurement_temperature    298.000000
_exptl_crystal_density_diffrn    3.770000
_exptl_crystal_colour            'violet'
loop_
_pd_peak_d_spacing
_pd_peak_intensity
     5.096550        348.86
     4.265206        565.08
     3.862264        176.65
     3.678983         74.33
     3.460483        776.62
     3.453549        113.07
     2.982991         80.66
     2.959750        613.93
     2.752754        249.90
     2.559458         30.63
     2.548275          0.99
     2.496061       1000.00
     2.431637        260.13
     2.348050         13.32
     2.340607        168.91
     2.288126         96.45
     2.247349        103.45
     2.239767        130.86
     2.134233         67.02
     2.132603        120.88
     2.094829          2.15
     2.015701         50.54
     2.006368         37.96
     1.931666          0.14
     1.931132         30.13
     1.870018         10.56
     1.840075          2.21
     1.839491        127.82
     1.836365          1.62
     1.819113          8.96
     1.810250         20.20
     1.790818        136.48
     1.786017          0.09
     1.783156         87.41
     1.730242        326.33
     1.726774         84.13
     1.713250         46.15
     1.698850         15.81
     1.657684        138.97
     1.632933        160.70
     1.617635          0.11
     1.603725        219.57
     1.597530          1.98
     1.580910         17.99
     1.560138         99.23
     1.547228          5.52
     1.542350          3.08
     1.539380          0.31
     1.513347          0.15
     1.496938        100.06
     1.496376         17.84
     1.494288         10.12
     1.491496         11.54
     1.489828         32.52
     1.480571          3.01
     1.479875        125.31
     1.473390        131.98
     1.450741         30.41
     1.448328          0.83
     1.421735          5.98
     1.421175          9.18
     1.405821          0.41
     1.398111         26.32
     1.390828         59.18
     1.382421         51.93
     1.380333          5.91
     1.376377         24.24
     1.371177          1.28
     1.365705          4.61
     1.360251          0.85
     1.357303         20.89
     1.353958          1.73
     1.340615         30.26
     1.335408         92.57
     1.333812         14.63
     1.303457         29.23
     1.301189         44.87
     1.299447         19.70
     1.287421         56.19
     1.281549         27.29
     1.279729          2.22
     1.274137          0.00
     1.258774         72.47
     1.251965         15.53
     1.248031          3.02
     1.245610          0.77
     1.242627         14.19
     1.241609          5.83
     1.241572          8.24
     1.237505          4.29
     1.234705          6.53
     1.229681          0.03
     1.226328          5.37
     1.217548         23.90
     1.216036          0.87
     1.215818         36.21
     1.215131          5.59
     1.213712         20.90
     1.211319          0.11
     1.203977          1.47
     1.192298          6.99
     1.174752          0.42
     1.174025         14.80
     1.170303          0.26
     1.166314          7.82
     1.160458          1.62
     1.153494         26.13
     1.153195          7.80
     1.151183          0.80
     1.147981          5.74
     1.144917         31.52
     1.144314          0.94
     1.144063         11.46
     1.141726         17.18
     1.140769         13.70
     1.136803          2.44
     1.135573         17.13
     1.130013         11.95
     1.128871         18.83
     1.123675         18.58
     1.123276          4.51
     1.119923          0.63
     1.119884          3.72
     1.115871         15.84
     1.109649          1.04
     1.105028         38.87
     1.101000         19.52
     1.100365         25.97
     1.091306          4.32
     1.090652          0.33
     1.087582         53.70
     1.085643          0.57
     1.085105         39.86
     1.082436          4.63
     1.073684          6.23
     1.072887          0.45
     1.070375          1.24
     1.069448          0.91
     1.067116         14.78
     1.066846          0.13
     1.066301          6.54
     1.066178         14.45
     1.052215         19.97
     1.051488          7.66
     1.050849         10.17
     1.049412          2.97
     1.049294          5.15
     1.048380          0.20
     1.047414          0.10
     1.046676          2.69
     1.043610          0.01
     1.039027          2.42
     1.035096          6.61
     1.031916         53.97
     1.025256          7.63
     1.020101          2.07
     1.019310          2.26
     1.017377         10.24
     1.013483         41.32
     1.009400          0.11
     1.007850          8.13
##############################################################################
###                            Comments                                    ###
##############################################################################
###   Diffraction pattern calculated by Match!. 
###   I/Ic calculated by Match!. 
###   Space group has been derived from given symmetry operations. 
##############################################################################


