##############################################################################
###               Crystal structure data exported by Match!                ###
##############################################################################
###                           Data published by:                           ###
###                                                                        ###
###               COD (Crystallography Open Database)
##############################################################################
data_9016706
_citation_journal_full    'Journal of the Czech Geological Society'
_citation_journal_volume  '48'
_citation_page_first  '19'
_citation_page_last   '147'
_citation_year  '2003'
_citation_title  'Primary minerals of the Jachymov ore district'
loop_
_publ_author_name
  'Ondrus P.'
  'Veselovsky F.'
  'Gabasova A.'
  'Hlousek J.'
  'Srein V.'
  'Vavrnn I.'
  'Skala R.'
  'Sejkora J.'
  'Drabek M.'
_chemical_formula_sum  'C Ca O3'
_chemical_name_mineral  'Calcite'
_symmetry_space_group_name_H-M 'R -3 c'
_space_group_IT_number 167
_space_group_crystal_system 'trigonal (hexagonal axes)'
loop_
_symmetry_equiv_pos_as_xyz
   'x, y, z'
   'x+0.66667, y+0.33333, z+0.33333'
   'x+0.33333, y+0.66667, z+0.66667'
   '-y, x-y, z'
   '-y+0.66667, x-y+0.33333, z+0.33333'
   '-y+0.33333, x-y+0.66667, z+0.66667'
   '-x+y, -x, z'
   '-x+y+0.66667, -x+0.33333, z+0.33333'
   '-x+y+0.33333, -x+0.66667, z+0.66667'
   'x-y, -y, -z+0.5'
   'x-y+0.66667, -y+0.33333, -z+0.83333'
   'x-y+0.33333, -y+0.66667, -z+0.16667'
   '-x, -x+y, -z+0.5'
   '-x+0.66667, -x+y+0.33333, -z+0.83333'
   '-x+0.33333, -x+y+0.66667, -z+0.16667'
   'y, x, -z+0.5'
   'y+0.66667, x+0.33333, -z+0.83333'
   'y+0.33333, x+0.66667, -z+0.16667'
   '-x, -y, -z'
   '-x+0.66667, -y+0.33333, -z+0.33333'
   '-x+0.33333, -y+0.66667, -z+0.66667'
   'y, -x+y, -z'
   'y+0.66667, -x+y+0.33333, -z+0.33333'
   'y+0.33333, -x+y+0.66667, -z+0.66667'
   'x-y, x, -z'
   'x-y+0.66667, x+0.33333, -z+0.33333'
   'x-y+0.33333, x+0.66667, -z+0.66667'
   '-x+y, y, z+0.5'
   '-x+y+0.66667, y+0.33333, z+0.83333'
   '-x+y+0.33333, y+0.66667, z+0.16667'
   'x, x-y, z+0.5'
   'x+0.66667, x-y+0.33333, z+0.83333'
   'x+0.33333, x-y+0.66667, z+0.16667'
   '-y, -x, z+0.5'
   '-y+0.66667, -x+0.33333, z+0.83333'
   '-y+0.33333, -x+0.66667, z+0.16667'
_cell_length_a        4.98440
_cell_length_b        4.98440
_cell_length_c       17.03760
_cell_angle_alpha    90.0000
_cell_angle_beta     90.0000
_cell_angle_gamma   120.0000
loop_
_atom_site_label
_atom_site_fract_x
_atom_site_fract_y
_atom_site_fract_z
_atom_site_occupancy
_atom_site_B_iso_or_equiv
ca      0.000   0.000   0.000    1.00000    2.720
c      0.000   0.000   0.250    1.00000    2.700
o      0.260   0.000   0.250    1.00000    3.569
_cell_measurement_wavelength    1.541874
_cell_measurement_radiation   'x-rays'
_exptl_crystal_density_diffrn    2.720000
loop_
_pd_peak_d_spacing
_pd_peak_intensity
     3.850499         97.66
     3.031877       1000.00
     2.839600         19.92
     2.492200        137.36
     2.282132        179.48
     2.092203        132.45
     1.925250         58.68
     1.909898        169.59
     1.873101        179.74
     1.624098         24.83
     1.602404         74.87
     1.584782          8.21
     1.523581         45.44
     1.515939         20.58
     1.507481         20.58
     1.471547         13.71
     1.438872         50.18
     1.419800         26.35
     1.355222          8.12
     1.337302         15.35
     1.295156         20.61
     1.283500          3.77
     1.246100          7.86
     1.233650         14.12
     1.217146          0.27
     1.194269          0.05
     1.185563          3.70
     1.178373         14.39
     1.171312          2.15
     1.152552         26.89
     1.141066         12.97
     1.129526          0.04
     1.123303          2.36
     1.074286          0.03
     1.070598          0.03
     1.060069          4.39
     1.046102         14.06
     1.043618         16.45
     1.040846          0.10
     1.033857          7.36
     1.033558          1.83
     1.021754          1.32
     1.010626         15.57
##############################################################################
###                            Comments                                    ###
##############################################################################
###   Jachymov, Bohemia, Czech Republic
###   Diffraction pattern calculated by Match!. 
###   I/Ic calculated by Match!. 
##############################################################################


