##############################################################################
###               Crystal structure data exported by Match!                ###
##############################################################################

data_9007718
_citation_journal_full    'Acta Crystallographica, Section C'
_citation_journal_volume  '42'
_citation_page_first  '1277'
_citation_page_last   '1280'
_citation_year  '1986'
_citation_title  'The structure of atacamite and its relationship to spinelLocality: Mina La Farola, Chile'
loop_
_publ_author_name
  'Parise J. B.'
  'Hyde B. G.'
_chemical_formula_sum  'Cl Cu2 H3 O3'
_chemical_name_mineral  'Atacamite'
_symmetry_space_group_name_H-M 'P n m a'
_space_group_IT_number 62
_space_group_crystal_system 'orthorhombic'
loop_
_symmetry_equiv_pos_as_xyz
   'x, y, z'
   '-x+0.5, -y, z+0.5'
   'x+0.5, -y+0.5, -z+0.5'
   '-x, y+0.5, -z'
   '-x, -y, -z'
   'x+0.5, y, -z+0.5'
   '-x+0.5, y+0.5, z+0.5'
   'x, -y+0.5, z'
_cell_length_a        6.03000
_cell_length_b        6.86500
_cell_length_c        9.12000
_cell_angle_alpha    90.0000
_cell_angle_beta     90.0000
_cell_angle_gamma    90.0000
loop_
_atom_site_label
_atom_site_fract_x
_atom_site_fract_y
_atom_site_fract_z
_atom_site_occupancy
_atom_site_B_iso_or_equiv
cu      0.000   0.000   0.000    1.00000    0.552
cu      0.191   0.250   0.255    1.00000    0.552
cl      0.352   0.750   0.056    1.00000    0.947
o      0.150   0.250   -0.002    1.00000    0.868
o      0.441   0.065   0.288    1.00000    0.631
h      0.305   0.250   -0.015    1.00000    0.236
h      0.433   -0.033   0.228    1.00000    0.236
_cell_measurement_wavelength    1.541874
_cell_measurement_radiation   'x-rays'
_exptl_crystal_density_diffrn    3.757000
loop_
_pd_peak_d_spacing
_pd_peak_intensity
     5.484775       1000.00
     5.029955        714.91
     4.560000         11.97
     4.057414         49.18
     3.637114          6.02
     3.432500         27.90
     3.213914         38.44
     3.015000         20.39
     2.862626          4.08
     2.835242        588.30
     2.779654        463.32
     2.760504        284.57
     2.742387        174.35
     2.714542         93.43
     2.642122         95.82
     2.524358          6.39
     2.514977        192.87
     2.496347         15.10
     2.361496          0.00
     2.280000        351.32
     2.265233        490.45
     2.219531         17.56
     2.198434        102.67
     2.140711         55.71
     2.132642         31.08
     2.129187        107.00
     2.082911          3.80
     2.043655         83.16
     2.036632          5.04
     2.028707          7.59
     1.962893        106.21
     1.936871          0.07
     1.899200          0.58
     1.887262          1.52
     1.839248          0.05
     1.828258         62.37
     1.822777        118.65
     1.818557          6.65
     1.816413        146.31
     1.811476         15.23
     1.787426         81.58
     1.776591          3.10
     1.762838         13.44
     1.757923         64.46
     1.749608          0.01
     1.745875         85.64
     1.716250        139.17
     1.703955         43.83
     1.692563         10.29
     1.692016          0.07
     1.676652         25.00
     1.628777          0.05
     1.624301         43.33
     1.621180          3.50
     1.606957        231.19
     1.606250          9.85
     1.563296         59.54
     1.560631          0.33
     1.560145         20.01
     1.556149         67.03
     1.552127          1.65
     1.521803         14.56
     1.520000          0.09
     1.507753          3.20
     1.507500          3.80
     1.506530         44.10
     1.491528          0.08
     1.489868          0.00
     1.487318         38.66
     1.473895          0.00
     1.472653         15.41
     1.472417         47.91
     1.471973         11.98
     1.453595          2.03
     1.450635         42.67
     1.441056          3.68
     1.433585          3.26
     1.431313          4.00
     1.426329          2.95
     1.423722         41.20
     1.420683          3.56
     1.417621         90.83
     1.401182         24.54
     1.389827         65.86
     1.388027          1.27
     1.380446          0.21
     1.380252         35.85
     1.371194         82.95
     1.364711         12.91
     1.357700         20.09
     1.357271         43.35
     1.354319          1.28
     1.352471          2.48
     1.350745         17.03
     1.350563         34.96
     1.339042         33.22
     1.337061          6.37
     1.331497         14.62
     1.325334          0.02
     1.325162          1.79
     1.324541          1.80
     1.321061         62.66
     1.292028         41.69
     1.289330         11.38
     1.284522          2.17
     1.280010         19.93
     1.273471         13.97
     1.262179          1.33
     1.259029          4.11
     1.258881         11.89
     1.257489          8.96
     1.256926         31.69
     1.256779         23.21
     1.254803          0.47
     1.252110         11.12
     1.251297         29.79
     1.249535         13.00
     1.248173          0.77
     1.247057          0.76
     1.239113          0.53
     1.237970          4.80
     1.236909         30.87
     1.225196          0.37
     1.223912         22.95
     1.213488          3.60
     1.212371          0.06
     1.205110          0.00
     1.199327         18.49
     1.195970          8.86
     1.195592          8.63
     1.193950          2.93
     1.193897          0.34
     1.180748         23.06
     1.178224         11.99
     1.177863          1.09
     1.167375         10.00
     1.165913          1.56
     1.163215          3.14
     1.163099          1.40
     1.162000          6.44
     1.155716          7.89
     1.154638          0.78
     1.154441          0.10
     1.149454          0.16
     1.145704          3.62
     1.144167          3.31
     1.143160          2.86
     1.140000          9.96
     1.137889          0.02
     1.132724          0.09
     1.132617          2.32
     1.132210         13.67
     1.129380         13.82
     1.129061         15.33
     1.125081          0.38
     1.123982         12.12
     1.121010         10.01
     1.120158          1.62
     1.118155          0.30
     1.115667         18.52
     1.112765          3.99
     1.109766         20.59
     1.106357          0.24
     1.105537          0.05
     1.103966          0.47
     1.102054         12.48
     1.100643          5.46
     1.100245          0.37
     1.099217          3.36
     1.096955          2.54
     1.095768          8.64
     1.093277          0.17
     1.091436          0.24
     1.081892          0.40
     1.079671          0.50
     1.079242          0.04
     1.071305          1.52
     1.070356          6.30
     1.069729         19.35
     1.066321          0.53
     1.066053          0.38
     1.065620         11.22
     1.064888          1.02
     1.064593         37.77
     1.062445          1.55
     1.062272          0.14
     1.061435         10.44
     1.061347         18.47
     1.059938          7.66
     1.059675          1.70
     1.057578         13.38
     1.054337         16.99
     1.053686          1.99
     1.053427          0.23
     1.041714         30.53
     1.041456          4.21
     1.038846          0.02
     1.036075          2.56
     1.030846          2.99
     1.022687         23.01
     1.022625          0.85
     1.021828         11.33
     1.018316         28.04
     1.018082          5.14
     1.015161          5.00
     1.015084         14.80
     1.014354          8.59
     1.009078          9.93
     1.008854          0.64
     1.008229          3.62
     1.006704          0.24
##############################################################################
###                            Comments                                    ###
##############################################################################
###   Diffraction pattern calculated by Match!. 
###   I/Ic calculated by Match!. 
###   Space group has been derived from given symmetry operations. 
##############################################################################


