##############################################################################
###               Crystal structure data exported by Match!                ###
##############################################################################
###                           Data published by:                           ###
###                                                                        ###
###               COD (Crystallography Open Database)
##############################################################################
data_9007426
_citation_journal_full    'Acta Crystallographica'
_citation_journal_volume  '2'
_citation_page_first  '175'
_citation_page_last   '180'
_citation_year  '1949'
_citation_title  'The crystal structure of atacamite and the crystal chemistry ofcupric compounds'
loop_
_publ_author_name
  'Wells A. F.'
_chemical_formula_sum  'Cl Cu2 H3 O3'
_chemical_name_mineral  'Atacamite'
_symmetry_space_group_name_H-M 'P n a m'
_space_group_IT_number 62
_space_group_crystal_system 'orthorhombic'
loop_
_symmetry_equiv_pos_as_xyz
   'x, y, z'
   '-x, -y, z+0.5'
   'x+0.5, -y+0.5, -z+0.5'
   '-x+0.5, y+0.5, -z'
   '-x, -y, -z'
   'x, y, -z+0.5'
   '-x+0.5, y+0.5, z+0.5'
   'x+0.5, -y+0.5, z'
_cell_length_a        6.01000
_cell_length_b        9.13000
_cell_length_c        6.84000
_cell_angle_alpha    90.0000
_cell_angle_beta     90.0000
_cell_angle_gamma    90.0000
loop_
_atom_site_label
_atom_site_fract_x
_atom_site_fract_y
_atom_site_fract_z
_atom_site_occupancy
_atom_site_B_iso_or_equiv
cu      0.000   0.000   0.000    1.00000    1.000
cu      0.192   0.258   0.250    1.00000    1.000
cl      0.350   0.058   0.750    1.00000    1.000
o      0.185   0.000   0.250    1.00000    1.000
o      0.430   0.292   0.065    1.00000    1.000
_cell_measurement_wavelength    1.541874
_cell_measurement_radiation   'x-rays'
_exptl_crystal_density_diffrn    3.780000
loop_
_pd_peak_d_spacing
_pd_peak_intensity
     5.474158       1000.00
     5.019993        666.57
     4.565000         16.82
     4.047021         58.16
     3.635238          2.84
     3.420000         30.82
     3.210046         37.01
     3.005000          6.29
     2.854368          2.75
     2.826411        612.86
     2.780530        445.49
     2.751203        241.97
     2.737079        194.70
     2.715078         79.92
     2.634204         97.96
     2.523539         13.80
     2.509996        187.05
     2.490923         16.03
     2.356354          0.02
     2.282500        302.39
     2.257399        478.23
     2.212067         14.26
     2.191409         90.49
     2.138280         54.07
     2.133797         44.08
     2.126451         96.01
     2.075918          3.92
     2.040879         84.10
     2.036980          6.36
     2.023510         16.42
     1.956781         97.71
     1.931529          0.11
     1.898514          0.58
     1.881310          5.50
     1.834461          0.18
     1.824719         57.99
     1.817619          2.55
     1.816356        111.79
     1.813072        131.70
     1.810337         19.09
     1.781444         72.06
     1.771843          3.09
     1.764217         11.64
     1.756654         49.15
     1.747140         78.37
     1.746018          0.09
     1.710000        124.74
     1.698428         37.56
     1.692790          0.01
     1.687671         12.30
     1.673331         21.23
     1.625399          0.52
     1.618666         35.62
     1.616584          4.45
     1.605023        213.56
     1.601339          9.40
     1.560488          0.38
     1.559689         52.66
     1.557946         20.45
     1.555872         67.21
     1.547355          1.38
     1.521667          0.01
     1.521397         13.52
     1.505651          3.18
     1.503064         47.21
     1.502500          4.25
     1.486215          0.04
     1.484896          0.32
     1.482559         31.60
     1.475120          0.30
     1.470447         17.07
     1.467512         50.12
     1.466907         10.25
     1.448914          1.81
     1.446936         36.96
     1.441968          2.48
     1.429269          2.35
     1.427184          7.05
     1.425256          2.82
     1.421260         32.04
     1.419685          2.06
     1.413205         74.26
     1.397096         15.76
     1.390265         63.53
     1.386794          1.05
     1.378019          0.76
     1.375602         22.40
     1.368539         69.28
     1.360249         11.50
     1.357539         38.31
     1.354497          0.64
     1.352898         17.78
     1.349524         13.86
     1.349007          5.29
     1.347254         29.65
     1.335476         29.98
     1.334381          8.28
     1.331567         14.93
     1.324001          0.06
     1.321856          1.65
     1.319870          1.95
     1.317102         51.32
     1.287754          8.67
     1.287618         37.30
     1.281201         14.71
     1.280343          2.00
     1.274616         13.04
     1.261770          2.14
     1.256415          6.41
     1.255327         24.94
     1.254998         10.19
     1.254582         12.47
     1.253499         22.24
     1.253045         15.11
     1.250840          0.49
     1.247739         26.22
     1.245461          0.27
     1.245055          9.86
     1.242903          1.90
     1.238510          0.58
     1.234393         28.85
     1.233637          4.40
     1.222072         18.79
     1.221688          0.83
     1.211746          0.06
     1.209729          1.54
     1.201180          0.02
     1.196447          7.48
     1.195977         13.58
     1.194363          1.92
     1.193167          0.13
     1.191717          8.79
     1.178553          9.93
     1.178177         12.86
     1.174031          2.06
     1.166434          8.81
     1.162381          1.48
     1.161339          2.34
     1.160219          4.10
     1.159891          0.61
     1.152672          0.46
     1.152349          7.45
     1.151646          0.20
     1.145951          0.26
     1.143880          3.36
     1.142173          3.31
     1.141250          6.68
     1.140000          3.02
     1.136758          0.03
     1.132131         11.09
     1.130034          0.03
     1.129333          9.09
     1.128700          3.05
     1.125353          9.20
     1.121214          2.13
     1.121179          0.86
     1.120172          9.23
     1.117961         12.86
     1.116953          0.06
     1.112564          5.77
     1.111695         16.34
     1.106448          0.12
     1.106034         16.42
     1.103321          0.47
     1.100552          0.56
     1.099446         12.06
     1.098717          4.29
     1.096647          0.45
     1.095705          3.60
     1.094832          1.69
     1.093041          0.01
     1.093017          5.80
     1.087767          0.18
     1.082566          0.45
     1.079347          0.02
     1.077105          0.10
     1.070015          0.51
     1.069140          6.60
     1.066898          0.30
     1.065877         17.81
     1.065420          1.44
     1.063540          0.54
     1.063225         29.20
     1.062627          6.55
     1.059437          5.46
     1.059362          8.77
     1.059111          0.00
     1.058687          0.85
     1.058262         15.54
     1.056314          9.11
     1.056149          2.42
     1.054152          0.95
     1.051106         14.01
     1.050912          0.69
     1.041159         32.03
     1.037959          3.93
     1.035567          0.00
     1.034038          2.71
     1.028684          2.47
     1.021950         19.59
     1.020440          6.86
     1.019870          0.53
     1.018490         22.12
     1.015567          4.91
     1.012497          4.92
     1.011755          9.81
     1.011537         13.94
##############################################################################
###                            Comments                                    ###
##############################################################################
###   Diffraction pattern calculated by Match!. 
###   I/Ic calculated by Match!. 
###   Space group has been derived from given symmetry operations. 
##############################################################################


