##############################################################################
###               Crystal structure data exported by Match!                ###
##############################################################################
###                           Data published by:                           ###
###                                                                        ###
###               COD (Crystallography Open Database)
##############################################################################
data_1011149
_citation_journal_full    'Zeitschrift fuer Kristallographie, Kristallgeometrie, Kristallphysik,Kristallchemie (-144,1977)'
_citation_journal_volume  '90'
_citation_page_first  '1'
_citation_page_last   '7'
_citation_year  '1935'
_citation_title  'The crystal structure of witherite.'
loop_
_publ_author_name
  'Colby M Y'
  'la Coste J B'
_chemical_formula_sum  'Ba C O3'
_chemical_name_mineral  'Witherite'
_chemical_name_common  'Barium carbonate'
_symmetry_space_group_name_H-M 'P m c n S1'
_space_group_IT_number 62
_space_group_crystal_system 'orthorhombic'
loop_
_symmetry_equiv_pos_as_xyz
   'x, y, z'
   'x+0.5, -y, -z'
   '-x+0.5, y+0.5, -z+0.5'
   '-x+0.5, -y, -z'
   'x+0.5, y+0.5, -z+0.5'
   '-x, y, z'
   'x, -y+0.5, z+0.5'
   '-x, -y+0.5, z+0.5'
_cell_length_a        5.28000
_cell_length_b        8.83000
_cell_length_c        6.39000
_cell_angle_alpha    90.0000
_cell_angle_beta     90.0000
_cell_angle_gamma    90.0000
_cell_formula_units_Z 4
loop_
_atom_site_label
_atom_site_fract_x
_atom_site_fract_y
_atom_site_fract_z
_atom_site_occupancy
_atom_site_B_iso_or_equiv
ba      0.000   0.417   0.002    1.00000    1.000
c      0.000   0.750   0.155    1.00000    1.000
o      0.000   0.889   0.155    1.00000    1.000
o      0.202   0.680   0.155    1.00000    1.000
_cell_measurement_wavelength    1.541874
_cell_measurement_radiation   'x-rays'
_exptl_crystal_density_diffrn    4.399000
_exptl_crystal_density_meas      4.370000
loop_
_pd_peak_d_spacing
_pd_peak_intensity
     5.176682       1000.00
     4.531633         52.19
     4.415000         28.31
     3.696454          2.60
     3.632330          1.50
     3.195000        131.27
     3.004375         45.31
     2.992576        534.10
     2.733504         21.96
     2.673365          2.27
     2.640000        114.38
     2.611243        151.15
     2.588341         74.00
     2.570867        207.51
     2.385071          0.02
     2.351826        189.45
     2.324107          2.11
     2.265817         47.95
     2.207500         22.02
     2.164762          0.35
     2.135537         12.94
     2.086503          6.17
     2.070609         79.01
     2.035135        101.88
     2.002955        194.36
     1.983143          0.27
     1.940484        149.67
     1.927679          0.07
     1.918410          0.03
     1.878447          2.99
     1.848227         33.45
     1.816165         14.80
     1.803083         87.23
     1.726047         15.31
     1.725561          1.43
     1.717406          0.36
     1.702189         27.22
     1.693480         13.11
     1.674803         13.76
     1.673953          0.17
     1.666327          1.33
     1.640192          0.00
     1.636969          0.94
     1.629259         95.98
     1.620081          1.14
     1.597500         11.39
     1.583866         82.15
     1.571981          2.34
     1.551932          0.53
     1.545606          0.36
     1.541579          0.03
     1.532804          0.26
     1.529047          0.38
     1.518610         17.28
     1.510544         30.63
     1.506625         27.37
     1.502187         13.51
     1.496288         16.35
     1.483358         16.75
     1.472030         38.63
     1.471667         13.94
     1.470029          1.71
     1.455409          0.24
     1.444850          0.38
     1.444391          2.19
     1.434124          0.62
     1.430600         44.25
     1.404030          0.03
     1.383981          0.12
     1.366752         23.88
     1.365611         49.67
     1.359500         28.02
     1.356877         46.89
     1.350668          0.01
     1.345308         29.29
     1.341019          0.00
     1.336683         22.84
     1.333828          0.40
     1.325573          0.00
     1.320000         15.46
     1.316558          0.00
     1.305622          8.63
     1.296900         17.46
     1.295803          0.24
     1.294171          3.88
     1.285433         28.79
     1.279072         26.40
     1.264821         13.36
     1.264685          3.15
     1.263898          0.01
     1.260188          0.00
     1.256963          0.00
     1.246624          2.69
     1.240620          0.06
     1.239623          0.26
     1.237546         12.93
     1.232151          0.05
     1.230022          0.31
     1.227603          0.17
     1.226901          2.48
     1.223557          0.04
     1.219981         13.27
     1.210777          0.02
     1.208654         20.58
     1.208501          0.63
     1.204892          0.02
     1.195710         21.88
     1.192536         24.11
     1.184707          0.01
     1.183584          0.00
     1.182890          0.03
     1.180145          0.33
     1.175913          7.76
     1.173294          0.02
     1.172417          6.50
     1.172264          0.00
     1.162053          6.41
     1.161352          7.85
     1.155966          6.62
     1.155891         24.15
     1.145356          6.75
     1.144398          0.00
     1.142591          0.00
     1.140666         17.62
     1.132908          3.33
     1.127006          0.01
     1.120539         17.84
     1.115512          0.16
     1.113143          0.38
     1.113063         18.58
     1.111768          0.00
     1.106020          0.20
     1.103750          1.67
     1.100552          0.00
     1.097570         23.25
     1.087644          0.12
     1.087446          0.03
     1.085374          7.60
     1.082525         16.21
     1.082381         11.13
     1.080864          0.20
     1.075900          0.03
     1.072175          1.15
     1.071390          0.02
     1.067769          4.67
     1.065277         16.08
     1.065000          8.02
     1.064483          0.95
     1.063144          0.03
     1.060331          0.00
     1.057337          0.21
     1.048528          0.58
     1.048419          0.01
     1.043975          0.00
     1.043251          2.39
     1.043110         11.90
     1.042635          0.01
     1.036754          2.43
     1.035336          6.37
     1.035304          1.29
     1.034691          0.00
     1.027104          0.51
     1.025284          0.48
     1.023465          0.05
     1.020114          0.43
     1.018332          0.69
     1.017568          6.61
     1.015988          0.48
     1.015958          0.08
     1.014017         12.52
     1.012336          0.00
     1.010877          0.31
     1.006872         13.84
##############################################################################
###                            Comments                                    ###
##############################################################################
###   natural
###   Diffraction pattern calculated by Match!. 
###   I/Ic calculated by Match!. 
###   Space group has been derived from given symmetry operations. 
##############################################################################


