##############################################################################
###               Crystal structure data exported by Match!                ###
##############################################################################
###                           Data published by:                           ###
###                                                                        ###
###               COD (Crystallography Open Database)
##############################################################################
data_2102630
_citation_journal_full    'Acta Crystallographica Section B'
_citation_journal_volume  '60(5)'
_citation_page_first  '491'
_citation_page_last   '495'
_citation_year  '2004'
_citation_title  'Reinvestigation of the structure of BaCuSi~2~O~6~ -- evidence for aphase transition at high temperature'
loop_
_publ_author_name
  'Sparta Karine M.'
  'Roth Georg'
_chemical_formula_sum  'Ba Cu O6 Si2'
_chemical_name_common  'Barium copper cyclosilicate'
_symmetry_space_group_name_H-M 'I 4/m m m'
_space_group_IT_number 139
_space_group_crystal_system 'tetragonal'
loop_
_symmetry_equiv_pos_as_xyz
   'x, y, z'
   'x+0.5, y+0.5, z+0.5'
   '-y, x, z'
   '-y+0.5, x+0.5, z+0.5'
   '-x, -y, z'
   '-x+0.5, -y+0.5, z+0.5'
   'y, -x, z'
   'y+0.5, -x+0.5, z+0.5'
   'x, -y, -z'
   'x+0.5, -y+0.5, -z+0.5'
   '-x, y, -z'
   '-x+0.5, y+0.5, -z+0.5'
   'y, x, -z'
   'y+0.5, x+0.5, -z+0.5'
   '-y, -x, -z'
   '-y+0.5, -x+0.5, -z+0.5'
   '-x, -y, -z'
   '-x+0.5, -y+0.5, -z+0.5'
   'y, -x, -z'
   'y+0.5, -x+0.5, -z+0.5'
   'x, y, -z'
   'x+0.5, y+0.5, -z+0.5'
   '-y, x, -z'
   '-y+0.5, x+0.5, -z+0.5'
   '-x, y, z'
   '-x+0.5, y+0.5, z+0.5'
   'x, -y, z'
   'x+0.5, -y+0.5, z+0.5'
   '-y, -x, z'
   '-y+0.5, -x+0.5, z+0.5'
   'y, x, z'
   'y+0.5, x+0.5, z+0.5'
_cell_length_a        7.11040
_cell_length_b        7.11040
_cell_length_c       11.17500
_cell_angle_alpha    90.0000
_cell_angle_beta     90.0000
_cell_angle_gamma    90.0000
_cell_formula_units_Z 4
loop_
_atom_site_label
_atom_site_fract_x
_atom_site_fract_y
_atom_site_fract_z
_atom_site_occupancy
_atom_site_B_iso_or_equiv
ba      0.000   0.500   0.250    1.00000    1.910
cu      0.000   0.000   0.123    1.00000    1.579
si      0.276   0.276   0.000    1.00000    1.239
o      0.241   0.500   0.024    0.50000    2.684
o      0.192   0.192   0.121    1.00000    3.095
_cell_measurement_wavelength    1.541874
_cell_measurement_radiation   'x-rays'
_cell_measurement_temperature    640.000000
_exptl_crystal_density_diffrn    4.151000
_exptl_crystal_colour            'purple'
loop_
_pd_peak_d_spacing
_pd_peak_intensity
     5.999005        279.71
     5.587500         25.61
     5.027812        147.59
     3.737455        905.57
     3.555200        190.26
     3.299626        288.32
     3.058456        241.55
     2.999503       1000.00
     2.793750         38.55
     2.513906        546.85
     2.442069        661.58
     2.418498          5.35
     2.318559          5.04
     2.292557        135.68
     2.248506         79.48
     2.196663         26.42
     2.132150         75.22
     2.085942        296.11
     1.999668          0.08
     1.942062         54.28
     1.868728         22.68
     1.862500          6.77
     1.828524          4.92
     1.777600        194.93
     1.751650        329.95
     1.746518         74.24
     1.742890         68.10
     1.704351          8.37
     1.693942         13.49
     1.675937          0.04
     1.649813        128.07
     1.626059          0.00
     1.605282         75.76
     1.589934         72.87
     1.564952         26.51
     1.557651          4.61
     1.529228        167.63
     1.499751         39.25
     1.496526         24.61
     1.478729         41.84
     1.437175         99.75
     1.434337         65.15
     1.426722         11.64
     1.410703         13.46
     1.396875         44.60
     1.394464          3.61
     1.381831          1.34
     1.365336         15.15
     1.352966         60.43
     1.345896          5.08
     1.328556         26.00
     1.324081          3.14
     1.311247         19.36
     1.300120         16.72
     1.285920          6.96
     1.256953         39.30
     1.247677         97.53
     1.245818         21.41
     1.244500          1.49
     1.240819          2.79
     1.226307          5.30
     1.223157          2.72
     1.221035         73.99
     1.219424         14.37
     1.209249         65.98
     1.199801         17.82
     1.191381         22.12
     1.186545         11.78
     1.185067         15.50
     1.171516          1.79
     1.162599          7.89
     1.159279         22.43
     1.156617          4.97
     1.146279         11.46
     1.136810          0.77
     1.124253         28.98
     1.117601         51.94
     1.117500          0.47
     1.116265         24.51
     1.115316          1.85
     1.105016          0.06
     1.102164         17.52
     1.099875          1.86
     1.098332         44.75
     1.090973          0.06
     1.090879         12.93
     1.073027          0.39
     1.066075         22.11
     1.064178          9.67
     1.061874          4.39
     1.055220          0.71
     1.050741          2.01
     1.049395         24.20
     1.042971         11.23
     1.041885          3.89
     1.035824          1.90
     1.021153          2.11
     1.020210         12.47
     1.019485          2.12
     1.017459          6.56
     1.011601          3.36
     1.007653          1.70
##############################################################################
###                            Comments                                    ###
##############################################################################
###   Diffraction pattern calculated by Match!. 
###   I/Ic calculated by Match!. 
###   Space group has been derived from given symmetry operations. 
##############################################################################


