##############################################################################
###               Crystal structure data exported by Match!                ###
##############################################################################
###                           Data published by:                           ###
###                                                                        ###
###               COD (Crystallography Open Database)
##############################################################################
data_9013573
_citation_journal_full    'American Mineralogist'
_citation_journal_volume  '94'
_citation_page_first  '451'
_citation_page_last   '460'
_citation_year  '2009'
_citation_title  'Molecular conformation and anion configuration variations for As4S4 andAs4Se4 in an anion-substituted solid solution Locality: synthetic Note:S1Se1-5'
loop_
_publ_author_name
  'Kyono A.'
_chemical_formula_sum  'As S0.572 Se0.427'
_chemical_name_mineral  'Realgar'
_symmetry_space_group_name_H-M 'P 1 21/n 1'
_space_group_IT_number 14
_space_group_crystal_system 'monoclinic'
loop_
_symmetry_equiv_pos_as_xyz
   'x, y, z'
   '-x+0.5, y+0.5, -z+0.5'
   '-x, -y, -z'
   'x+0.5, -y+0.5, z+0.5'
_cell_length_a        9.44240
_cell_length_b       13.64000
_cell_length_c        6.65370
_cell_angle_alpha    90.0000
_cell_angle_beta    106.5060
_cell_angle_gamma    90.0000
loop_
_atom_site_label
_atom_site_fract_x
_atom_site_fract_y
_atom_site_fract_z
_atom_site_occupancy
_atom_site_B_iso_or_equiv
as      0.119   -0.020   0.760    1.00000    1.950
as      0.424   0.140   0.859    1.00000    1.910
as      0.323   0.129   0.177    1.00000    1.942
as      0.040   0.161   0.710    1.00000    2.108
s      0.343   -0.009   0.697    0.53300    2.329
se      0.343   -0.009   0.697    0.46700    2.329
s      0.214   -0.025   0.118    0.49600    2.163
se      0.214   -0.025   0.118    0.50400    2.163
s      0.241   0.229   0.640    0.70100    2.321
se      0.241   0.229   0.640    0.29900    2.321
s      0.109   0.214   0.055    0.56000    2.526
se      0.109   0.214   0.055    0.44000    2.526
_cell_measurement_wavelength    1.541874
_cell_measurement_radiation   'x-rays'
_exptl_crystal_density_diffrn    4.108000
loop_
_pd_peak_d_spacing
_pd_peak_intensity
     7.542991         68.38
     6.820000         89.90
     6.093323        351.46
     5.778694        580.14
     5.563431        263.12
     5.447312       1000.00
     4.658937        111.27
     4.631884         70.52
     4.543903         14.11
     4.526639         38.11
     4.385901          0.70
     4.296236          8.75
     4.114420        151.05
     4.063061         12.83
     3.831720         26.18
     3.771495        125.78
     3.702551         58.95
     3.646701         74.79
     3.644018          6.75
     3.410000         24.06
     3.244688          5.56
     3.224408        104.64
     3.207875        405.34
     3.191139        458.01
     3.189750        438.72
     3.187455          0.59
     3.130026          8.13
     3.105953        136.79
     3.088088        450.20
     3.046662         12.08
     3.011863        132.34
     3.007335        180.10
     2.983970        245.58
     2.975716          0.21
     2.973392        220.01
     2.954610        491.67
     2.946507         23.80
     2.889347        165.33
     2.813140        243.86
     2.781715         35.46
     2.759665        160.02
     2.746080        586.24
     2.723656        192.42
     2.716251        246.10
     2.680448          0.65
     2.675521        101.74
     2.659106         29.38
     2.611994        185.43
     2.611233         81.60
     2.567799         19.72
     2.554574         56.50
     2.544641        206.56
     2.530973          0.03
     2.514330        112.41
     2.508291          0.00
     2.489857        184.41
     2.470121         66.72
     2.430587         95.21
     2.421370         92.37
     2.378210         89.98
     2.366660          6.31
     2.363266         11.35
     2.350611          1.06
     2.336500         19.43
     2.329469          1.89
     2.322482         54.39
     2.319914          6.11
     2.315942         17.30
     2.305899          2.92
     2.288976          1.34
     2.283264          0.60
     2.273333        172.09
     2.271951          3.09
     2.263320         24.80
     2.259890         50.74
     2.250548         70.40
     2.232790         27.25
     2.225360         35.29
     2.214982        170.67
     2.204882        109.13
     2.192951         43.26
     2.186343         62.69
     2.170488          1.53
     2.157715        101.10
     2.150854          7.72
     2.150227        139.51
     2.148118         46.88
     2.141431          4.72
     2.131214         36.89
     2.129926         47.19
     2.107337         13.05
     2.106661          0.46
     2.101119         19.43
     2.096918          0.25
     2.090588          2.14
     2.074295         59.90
     2.073201          0.11
     2.063648          6.33
     2.062583         10.98
     2.057210         57.00
     2.044501          7.56
     2.040785          2.86
     2.032342          0.53
     2.031530         21.54
     2.031108         36.84
     2.030104          2.45
     2.026157          2.60
     2.023695         19.10
     2.011319         14.27
     2.008957         11.12
     2.000429         64.43
     1.991257         23.13
     1.963857         10.54
     1.950473          0.65
     1.949339          0.09
     1.946614          6.66
     1.944358          1.75
     1.944276         54.95
     1.937358          4.17
     1.930832         35.31
     1.926231          4.17
     1.915860          9.29
     1.915658          3.32
     1.904947         18.00
     1.888480         18.91
     1.887673         26.29
     1.885748          9.13
     1.878342          0.01
     1.875459         53.40
     1.875288        146.13
     1.870636         23.62
     1.868104        167.15
     1.863578          6.74
     1.861377         21.74
     1.857515          2.24
     1.855981          2.37
     1.854477          6.59
     1.851275        101.99
     1.835214          0.92
     1.831038          1.94
     1.830755        159.82
     1.823350         23.55
     1.822009          6.35
     1.819994        210.55
     1.815771         10.90
     1.814689          6.44
     1.804397         42.78
     1.803303        139.19
     1.796107          8.11
     1.795202          3.00
     1.794910          2.21
     1.792496         39.17
     1.789789          0.05
     1.782301         71.33
     1.780336         19.81
     1.775922         16.98
     1.768346          0.32
     1.765520         20.60
     1.757745         27.89
     1.750300          8.70
     1.750030         18.38
     1.745014         79.62
     1.744023         27.38
     1.741871          3.48
     1.729414         15.98
     1.719547        138.14
     1.708572         79.71
     1.705000         63.89
     1.702175          1.72
     1.701809          9.17
     1.698420         71.43
     1.693078        168.20
     1.692336         42.11
     1.689162        108.15
     1.682820          3.08
     1.682412         35.26
     1.682172          2.09
     1.680307          6.44
     1.677150         43.30
     1.675545         36.08
     1.675011          0.13
     1.672739         41.04
     1.662848         13.40
     1.659231         50.85
     1.652054         72.30
     1.647929         12.84
     1.647186          2.60
     1.647089          4.91
     1.641933          8.64
     1.641542         33.44
     1.640975          3.93
     1.639110         10.13
     1.636975         29.26
     1.635336         60.66
     1.629145          0.53
     1.627901          0.00
     1.627402          0.52
     1.625249          3.74
     1.624816          5.47
     1.622344          9.60
     1.613833         25.74
     1.613409         60.83
     1.613136         25.29
     1.612204          3.31
     1.606469          0.06
     1.603937          8.17
     1.600751          1.18
     1.600041          0.25
     1.599401          1.78
     1.599195          7.71
     1.595569         12.15
     1.594875          2.21
     1.594122         21.71
     1.594077          7.87
     1.593727         80.04
     1.586642          0.62
     1.586457         36.15
     1.585721          0.22
     1.584083          5.56
     1.580977          5.24
     1.580578         17.77
     1.578190          0.28
     1.572495         17.88
     1.568672          7.17
     1.565013         35.22
     1.561465          0.03
     1.558684          0.29
     1.557128         32.74
     1.553499          4.08
     1.552977          8.47
     1.552730          6.91
     1.552349          7.87
     1.544044          0.77
     1.543961          3.55
     1.541968          5.45
     1.534245         23.87
     1.534164          0.11
     1.531647         60.48
     1.530412          2.93
     1.530050          4.23
     1.529859         10.26
     1.523331         62.26
     1.520285          0.00
     1.519242          4.03
     1.516540          2.87
     1.514634         22.44
     1.513919         34.94
     1.512643         65.21
     1.508880          1.73
     1.508772          6.03
     1.508598          1.81
     1.505932          4.17
     1.505855         15.73
     1.504970          6.59
     1.503667         24.69
     1.501088          4.28
     1.499731          0.00
     1.494756          2.86
     1.492609          6.69
     1.491985         33.81
     1.491022         20.28
     1.490597         37.94
     1.487858          0.17
     1.487436          0.23
     1.486696         15.56
     1.486366          3.30
     1.485534         42.92
     1.484455          8.80
     1.480297          3.12
     1.477305         73.38
     1.476695          1.28
     1.474517          2.40
     1.473426          0.37
     1.473254         11.16
     1.470745          1.89
     1.469082         11.54
     1.467133         25.87
     1.466814         52.83
     1.464592         10.15
     1.463020          5.90
     1.462037         16.89
     1.461967          0.71
     1.457283         31.07
     1.452643          4.01
     1.452242          4.91
     1.452049         13.81
     1.446151          1.97
     1.444673          5.60
     1.444416          4.98
     1.440410          0.41
     1.437145         43.48
     1.436640         21.29
     1.432079          0.03
     1.430543          2.58
     1.429936          3.63
     1.427455          4.60
     1.425973          0.34
     1.424139         14.85
     1.424119          9.85
     1.417610         17.83
     1.416459          9.76
     1.416316          1.22
     1.413707          2.69
     1.407509          5.84
     1.406570          2.10
     1.406507          0.26
     1.406121          3.13
     1.405000          4.86
     1.404746          7.00
     1.404326         14.50
     1.403188         10.02
     1.396241          0.17
     1.395966          0.17
     1.390858          4.72
     1.387743          0.94
     1.385883          0.23
     1.383465          0.00
     1.383417          2.46
     1.382916          1.16
     1.382516         30.62
     1.380889          3.03
     1.379832          1.26
     1.378784          9.09
     1.378588         39.70
     1.378520          1.45
     1.376841          8.85
     1.375936          5.73
     1.375659          0.30
     1.373040          6.48
     1.372966          0.34
     1.372708          1.47
     1.371473          0.01
     1.368897          4.68
     1.364000          1.33
     1.361911          0.01
     1.361828          5.96
     1.361090          0.97
     1.360537          0.00
     1.358126          1.89
     1.356936          8.32
     1.356104          2.29
     1.355403          2.25
     1.354354          0.36
     1.351080          2.30
     1.348778          0.27
     1.348692          0.12
     1.348320          4.58
     1.344081          4.83
     1.343737         17.78
     1.343683          0.12
     1.342425          1.95
     1.341205          2.53
     1.340224          0.73
     1.337760         33.44
     1.337603          0.00
     1.336924          0.03
     1.334328          4.02
     1.333852         12.65
     1.331844          5.03
     1.331058          4.14
     1.330221         10.78
     1.330018          9.38
     1.329756          0.24
     1.329553          0.10
     1.326524          0.05
     1.326406          0.82
     1.325666          0.91
     1.325377          1.05
     1.324448          8.59
     1.323134         24.82
     1.322124          0.13
     1.321890          1.05
     1.320368          0.71
     1.318715          0.02
     1.317034          0.03
     1.316145          1.74
     1.314902          5.73
     1.314121          0.02
     1.313196          3.40
     1.310937          0.00
     1.310060          1.13
     1.309917          0.28
     1.308446          7.70
     1.308080          2.15
     1.306105          9.55
     1.305997          4.53
     1.305885          0.67
     1.305616          2.60
     1.304783          0.01
     1.304446          0.84
     1.300580          5.41
     1.299308          0.00
     1.295056          0.27
     1.293142          2.56
     1.292865          1.83
     1.292301          3.81
     1.291789          9.86
     1.289258         13.37
     1.288940          1.82
     1.287637          9.79
     1.287551          0.29
     1.283899          0.01
     1.283785          1.33
     1.283686          0.19
     1.281598          0.06
     1.279197          1.41
     1.277889          5.32
     1.277287          2.84
     1.277240          3.75
     1.277157          4.87
     1.274328          0.27
     1.272417          0.06
     1.272321          0.00
     1.272318          1.21
     1.271956          8.55
     1.270679          8.69
     1.270355          4.62
     1.269576          1.02
     1.268151          0.98
     1.265526          0.17
     1.265487         12.93
     1.265030          0.13
     1.264241          3.00
     1.263512          0.06
     1.263291          1.49
     1.261585          0.33
     1.260526          0.32
     1.259339          0.00
     1.259302          0.09
     1.257165          0.72
     1.256030          0.74
     1.255682          1.89
     1.254342          0.40
     1.254161         10.90
     1.254146          1.15
     1.254142          2.34
     1.253862          2.15
     1.251770          1.12
     1.250788          1.20
     1.250451          0.82
     1.248097          0.15
     1.247901          2.65
     1.247775          6.66
     1.247708          1.34
     1.247557         18.88
     1.245742          0.49
     1.245516         10.50
     1.244929          0.01
     1.243976          6.23
     1.243912          0.53
     1.242933          0.64
     1.242016          0.74
     1.241386          0.65
     1.241289          7.58
     1.240198          0.66
     1.239684          0.28
     1.235581          5.34
     1.235061          8.11
     1.234184          0.01
     1.234182          0.00
     1.233530          3.08
     1.230222          0.29
     1.230029          0.81
     1.229895         12.43
     1.228583         18.05
     1.228530          2.56
     1.228447          0.24
     1.227861          4.87
     1.223839          1.72
     1.223395          0.27
     1.222800          3.11
     1.222257          0.00
     1.218996         10.26
     1.218665          0.02
     1.218299          0.28
     1.217220          5.57
     1.216554          0.15
     1.215567          1.03
     1.215294          2.53
     1.215095          3.39
     1.214673         13.48
     1.213830          6.61
     1.213468          0.63
     1.211744          0.30
     1.210685          1.49
     1.210170          4.64
     1.210131          7.03
     1.209271          0.27
     1.206878          3.95
     1.205683          4.42
     1.202743          0.14
     1.201461          1.16
     1.200120          0.00
     1.199947          6.24
     1.199662          1.25
     1.199620         13.04
     1.199359          0.79
     1.199314          0.33
     1.198094          0.48
##############################################################################
###                            Comments                                    ###
##############################################################################
###   Diffraction pattern calculated by Match!. 
###   I/Ic calculated by Match!. 
##############################################################################


