##############################################################################
###               Crystal structure data exported by Match!                ###
##############################################################################
###                           Data published by:                           ###
###                                                                        ###
###               COD (Crystallography Open Database)
##############################################################################
data_4124084
_citation_journal_full    'Journal of the American Chemical Society'
_citation_journal_volume  '126'
_citation_page_first  '9769'
_citation_page_last   '9775'
_citation_year  '2004'
_citation_title  'Chemical evaluation of hypothetical uninodal zeolites'
loop_
_publ_author_name
  'Foster M.D.'
  'Friedrichs O.D.'
  'Bell R.G.'
  'Paz F.A.A.'
  'Klinowski J.'
_chemical_formula_sum  'O2 Si'
_chemical_name_common  'Silica'
_symmetry_space_group_name_H-M 'P -3 1 c'
_space_group_IT_number 163
_space_group_crystal_system 'trigonal (hexagonal axes)'
loop_
_symmetry_equiv_pos_as_xyz
   'x, y, z'
   '-y, x-y, z'
   '-x+y, -x, z'
   '-y, -x, -z+0.5'
   '-x+y, y, -z+0.5'
   'x, x-y, -z+0.5'
   '-x, -y, -z'
   'y, -x+y, -z'
   'x-y, x, -z'
   'y, x, z+0.5'
   'x-y, -y, z+0.5'
   '-x, -x+y, z+0.5'
_cell_length_a        8.12338
_cell_length_b        8.12338
_cell_length_c        7.05098
_cell_angle_alpha    90.0000
_cell_angle_beta     90.0000
_cell_angle_gamma   120.0000
_cell_formula_units_Z 12
loop_
_atom_site_label
_atom_site_fract_x
_atom_site_fract_y
_atom_site_fract_z
_atom_site_occupancy
_atom_site_B_iso_or_equiv
o      0.500   0.500   0.500    1.00000    1.000
o      0.799   0.201   0.750    1.00000    1.000
si      0.705   0.657   0.577    1.00000    1.000
o      0.695   0.850   0.604    1.00000    1.000
_cell_measurement_wavelength    1.541874
_cell_measurement_radiation   'x-rays'
_exptl_crystal_density_diffrn    2.971000
loop_
_pd_peak_d_spacing
_pd_peak_intensity
     7.035053         40.74
     4.980155         67.85
     4.061690       1000.00
     3.525490        177.57
     3.517527         67.07
     3.151866          0.21
     3.147592          3.62
     2.662435        470.15
     2.659000          5.14
     2.490078         48.99
     2.487969        162.50
     2.345018         37.11
     2.229210          5.56
     2.225181         53.67
     2.122891         48.16
     2.030845         61.33
     1.954228         26.22
     1.952529         56.42
     1.951173          2.13
     1.880500         88.27
     1.762745          2.95
     1.761000         18.71
     1.759756         61.96
     1.758763          0.28
     1.709886         10.79
     1.707158         14.74
     1.706478         17.31
     1.660052          0.00
     1.617027         92.00
     1.613952          1.87
     1.575933         21.63
     1.573796          6.30
     1.573263          7.87
     1.535174         36.66
     1.501265         16.99
     1.500032         10.13
     1.469218          2.42
     1.467486          0.44
     1.409047          9.35
     1.408155         56.47
     1.407519         40.54
     1.407011          6.02
     1.382690          3.71
     1.379807         21.43
     1.353897          7.16
     1.331218         28.34
     1.330465         59.12
     1.329500          4.69
     1.308925         11.71
     1.308006         14.66
     1.306783         20.19
     1.306478         54.66
     1.285289          0.50
     1.263901          0.56
     1.263533          0.03
     1.245831          7.88
     1.245039          7.34
     1.243984         19.63
     1.243721         15.16
     1.208508          1.08
     1.207223         46.06
     1.190369          8.19
     1.189448          0.15
     1.175163         12.52
     1.172509         13.13
     1.159103          1.31
     1.157686         16.95
     1.157191         22.48
     1.156626          0.11
     1.156556          0.24
     1.142934         13.54
     1.141304          9.01
     1.128864         12.48
     1.126510          3.14
     1.114605         11.93
     1.112905          0.39
     1.112591          7.91
     1.112402          5.61
     1.100205          0.63
     1.099659          4.85
     1.098933          7.92
     1.074868          2.73
     1.073737          0.58
     1.073061          3.41
     1.072836          2.14
     1.061936          2.70
     1.061445          6.83
     1.060629         24.75
     1.050622         13.64
     1.049197          1.27
     1.038536          0.48
     1.037720          2.15
     1.026957          0.54
     1.026365          7.99
     1.017145          1.50
     1.015852          0.13
     1.015422          0.14
     1.006678          2.35
##############################################################################
###                            Comments                                    ###
##############################################################################
###   Diffraction pattern calculated by Match!. 
###   I/Ic calculated by Match!. 
###   Space group has been derived from given symmetry operations. 
##############################################################################


