##############################################################################
###               Crystal structure data exported by Match!                ###
##############################################################################
###                           Data published by:                           ###
###                                                                        ###
###               COD (Crystallography Open Database)
##############################################################################
data_9013584
_citation_journal_full    'American Mineralogist'
_citation_journal_volume  '94'
_citation_page_first  '451'
_citation_page_last   '460'
_citation_year  '2009'
_citation_title  'Molecular conformation and anion configuration variations for As4S4 andAs4Se4 in an anion-substituted solid solution Locality: synthetic Note:S1Se2-1'
loop_
_publ_author_name
  'Kyono A.'
_chemical_formula_sum  'As S0.763 Se0.237'
_chemical_name_mineral  'Realgar'
_symmetry_space_group_name_H-M 'P 1 21/n 1'
_space_group_IT_number 14
_space_group_crystal_system 'monoclinic'
loop_
_symmetry_equiv_pos_as_xyz
   'x, y, z'
   '-x+0.5, y+0.5, -z+0.5'
   '-x, -y, -z'
   'x+0.5, -y+0.5, z+0.5'
_cell_length_a        9.41930
_cell_length_b       13.60270
_cell_length_c        6.63110
_cell_angle_alpha    90.0000
_cell_angle_beta    106.4830
_cell_angle_gamma    90.0000
loop_
_atom_site_label
_atom_site_fract_x
_atom_site_fract_y
_atom_site_fract_z
_atom_site_occupancy
_atom_site_B_iso_or_equiv
as      0.120   -0.020   0.762    1.00000    2.218
as      0.424   0.140   0.858    1.00000    2.163
as      0.322   0.128   0.177    1.00000    2.179
as      0.041   0.161   0.713    1.00000    2.376
s      0.345   -0.008   0.698    0.73400    2.471
se      0.345   -0.008   0.698    0.26600    2.471
s      0.214   -0.025   0.119    0.68400    2.416
se      0.214   -0.025   0.119    0.31600    2.416
s      0.240   0.228   0.639    0.85100    2.558
se      0.240   0.228   0.639    0.14900    2.558
s      0.108   0.213   0.054    0.78100    2.510
se      0.108   0.213   0.054    0.21900    2.510
_cell_measurement_wavelength    1.541874
_cell_measurement_radiation   'x-rays'
_exptl_crystal_density_diffrn    3.852000
loop_
_pd_peak_d_spacing
_pd_peak_intensity
     7.524493         70.18
     6.801350         87.00
     6.073410        378.48
     5.760314        532.91
     5.545743        265.44
     5.433217       1000.00
     4.644846        110.83
     4.618976         43.15
     4.530129         11.01
     4.516102         15.33
     4.373702          0.07
     4.286061         22.80
     4.102788        183.31
     4.052283         21.27
     3.821105         32.58
     3.762247        107.72
     3.691748         53.92
     3.636463         77.42
     3.633358          5.82
     3.400675          3.30
     3.235732         11.74
     3.213566         53.02
     3.199758        357.55
     3.182573        358.59
     3.179335          7.76
     3.179294        434.12
     3.121299         10.45
     3.095859         96.42
     3.080036        403.78
     3.036705          5.40
     3.003992         96.39
     2.998747        183.02
     2.974205        235.22
     2.967200          0.02
     2.963750        182.22
     2.947005        500.19
     2.939592         18.51
     2.880157        128.24
     2.805744        181.38
     2.772872         23.26
     2.753057        146.80
     2.738520        495.33
     2.716609        145.53
     2.708091        199.03
     2.671955          0.00
     2.668099         81.02
     2.652181         16.81
     2.604940        171.60
     2.603141         48.92
     2.560158         13.38
     2.547811         37.00
     2.536947        165.32
     2.523120          2.98
     2.508164        123.55
     2.501221          0.42
     2.482827        171.55
     2.464108         83.74
     2.424647         70.99
     2.414115         94.18
     2.370894         78.86
     2.359704          2.80
     2.357047         15.30
     2.344151          0.30
     2.330364         13.03
     2.322423          2.85
     2.316748         38.39
     2.314096          2.27
     2.309488         15.04
     2.299526          0.52
     2.282876          0.26
     2.276904          1.26
     2.267117        157.26
     2.265064          1.41
     2.258051         23.30
     2.254225         49.97
     2.243885         85.39
     2.227568         25.18
     2.219739         26.55
     2.207479        143.95
     2.198906        103.94
     2.186851         37.79
     2.178973         65.91
     2.165056          1.85
     2.151595        101.08
     2.144609          4.62
     2.143031         45.85
     2.142993        128.56
     2.135444          4.72
     2.125174         37.98
     2.123962         44.48
     2.101008          2.55
     2.099656          0.49
     2.094259         24.83
     2.091354          0.09
     2.085255          1.50
     2.067407         53.64
     2.067055          0.00
     2.057919          5.23
     2.056551         14.00
     2.051394         46.85
     2.039024          5.43
     2.035184          3.95
     2.026302          0.42
     2.026141         21.50
     2.024470         28.22
     2.023547          1.58
     2.021276          2.83
     2.018531         19.62
     2.005775         12.38
     2.002415         11.72
     1.995353         53.36
     1.984761         20.84
     1.957455          8.11
     1.944416          1.45
     1.943847          0.26
     1.940337          6.18
     1.939702          0.03
     1.938691         43.04
     1.932366          3.75
     1.924851         24.13
     1.920105          4.38
     1.910609          4.57
     1.910553          9.26
     1.899772         12.57
     1.883860         17.49
     1.883116         22.31
     1.881123          7.96
     1.872909          0.75
     1.869932         49.72
     1.869518        116.36
     1.866050         24.16
     1.863116        142.10
     1.858396          8.53
     1.856461         16.81
     1.851582          3.64
     1.850813          2.79
     1.848581          5.25
     1.845874         89.35
     1.829354          0.36
     1.826333          0.06
     1.825830        134.05
     1.818232         20.62
     1.816679          5.16
     1.815504        156.52
     1.811072         13.06
     1.809054          8.54
     1.798899         98.25
     1.798757         35.08
     1.791182          6.22
     1.790719          2.43
     1.790356          2.68
     1.787033         29.17
     1.785008          0.14
     1.777665         56.16
     1.775620         18.66
     1.771035         14.69
     1.762888          0.61
     1.760638         19.70
     1.752739         22.64
     1.745909         17.74
     1.745572          7.57
     1.739683         23.64
     1.739555         64.52
     1.737527          3.62
     1.724351         15.09
     1.714168        127.19
     1.703677         67.40
     1.700338         53.27
     1.697964          1.03
     1.696484          7.52
     1.693224         59.16
     1.687975        142.30
     1.687603         36.57
     1.684232         97.87
     1.678346          3.44
     1.678162          2.56
     1.677863         30.72
     1.675425          5.47
     1.671996         34.01
     1.670986         22.63
     1.670517          0.00
     1.668395         35.72
     1.658055          7.59
     1.653590         36.87
     1.647900         67.02
     1.643482         15.91
     1.642622          2.82
     1.641506          4.90
     1.637379          6.37
     1.636799         22.96
     1.635460          5.71
     1.634952          8.59
     1.632695         21.72
     1.631048         44.74
     1.624131          0.09
     1.623269          0.91
     1.623170          0.02
     1.620976          5.32
     1.620436          1.72
     1.617866         10.29
     1.609587         47.41
     1.609059         17.31
     1.608252         19.21
     1.606783          2.86
     1.601111          0.05
     1.599879          6.85
     1.595656          0.85
     1.595387          0.96
     1.595329          7.29
     1.595072          1.61
     1.591287          9.31
     1.590127         18.81
     1.589667         63.20
     1.589647          0.82
     1.589569          6.61
     1.581914          0.10
     1.581587         31.45
     1.581363          0.00
     1.578902          5.65
     1.576811         17.53
     1.576315          5.04
     1.573980          0.03
     1.567666         16.43
     1.563453          7.14
     1.560649         27.77
     1.557687          0.04
     1.553507          0.04
     1.552701         28.53
     1.548786          6.34
     1.548379          2.94
     1.548282          1.85
     1.547929          5.52
     1.547863          7.90
     1.540018          0.65
     1.539659          4.11
     1.538022          4.86
     1.530242         23.24
     1.529890          0.00
     1.527923         53.11
     1.526369          4.71
     1.525919          2.21
     1.525852         12.60
     1.518353         49.84
     1.515732          0.02
     1.514243          4.29
     1.512182          2.97
     1.510043         20.53
     1.508981         28.22
     1.508570         51.00
     1.505367          1.34
     1.504899          1.10
     1.504683          6.03
     1.501996          2.48
     1.501662          9.08
     1.500126          5.69
     1.499374         20.81
     1.497126          3.45
     1.496233          0.12
     1.490685          3.48
     1.488572          6.05
     1.487103         21.50
     1.486912         15.70
     1.485908         33.25
     1.483600          0.19
     1.482603          0.00
     1.482597          2.94
     1.481896         39.32
     1.481875         12.26
     1.480542          7.79
     1.475933          2.21
     1.473503         67.76
     1.472913          1.14
     1.470442          2.03
     1.469796          7.73
     1.469484          0.13
     1.466678          1.72
     1.464860          8.95
     1.463246         49.08
     1.462850         19.86
     1.460006          9.48
     1.458602          6.17
     1.458206         15.14
     1.457901          0.41
     1.452553         23.76
     1.448918          1.82
     1.448158          5.15
     1.447661         13.59
     1.442130          1.04
     1.440079          6.20
     1.439773          2.91
     1.436464          1.17
     1.433274         40.21
     1.432355         19.60
     1.428687          0.03
     1.426487          1.20
     1.426010          1.80
     1.423928          3.99
     1.421747          0.17
     1.420116         10.67
     1.419691         11.30
     1.413046         16.03
     1.412795          1.10
     1.412617         10.17
     1.409184          3.20
     1.403523          5.25
     1.402872          1.94
     1.402600          0.37
     1.401917          2.87
     1.401362          3.68
     1.400847         11.71
     1.400325          5.91
     1.399487         10.13
     1.392531          0.01
     1.392189          0.00
     1.386436          2.55
     1.383305          0.41
     1.381704          0.14
     1.379872          0.66
     1.379511          0.24
     1.379080         27.69
     1.378582          1.30
     1.377224          2.30
     1.376528          0.71
     1.374659         30.70
     1.374631          8.29
     1.374495          2.23
     1.372697          4.09
     1.372518          6.17
     1.371945          0.27
     1.369281          0.42
     1.369260          5.29
     1.368476          1.02
     1.367596          0.66
     1.365016          3.14
     1.360270          1.26
     1.358514          0.06
     1.358304          5.63
     1.357446          0.47
     1.356851          0.07
     1.354045          2.26
     1.353082          9.78
     1.352597          1.44
     1.352197          2.78
     1.350761          0.28
     1.347057          2.20
     1.345101          0.36
     1.344953          2.55
     1.344490          0.29
     1.340862          4.80
     1.340192         14.50
     1.339955          0.00
     1.338424          1.53
     1.337612          2.76
     1.335977          0.74
     1.334395          0.00
     1.334050         29.66
     1.332712          0.03
     1.330412          4.26
     1.330173         11.83
     1.328452          3.35
     1.327384          3.72
     1.326300          6.59
     1.326091          0.15
     1.326034          0.06
     1.325840          9.89
     1.323069          0.49
     1.322922          0.10
     1.321700          1.06
     1.321638          1.08
     1.319981         20.93
     1.319958          8.97
     1.318600          1.11
     1.318310          0.08
     1.317168          0.24
     1.315540          0.23
     1.312567          0.01
     1.311728          2.01
     1.310759          4.92
     1.310108          0.05
     1.309845          2.68
     1.306499          0.03
     1.306403          0.02
     1.305671          1.76
     1.304862          5.62
     1.304403          1.50
     1.302470          4.51
     1.302026          1.00
     1.301701          8.36
     1.301570          2.71
     1.301168          0.85
     1.300750          0.00
     1.297011          4.20
     1.295613          0.12
     1.291127          0.18
     1.289609          3.09
     1.288787          2.14
     1.288363          5.96
     1.287992          2.41
     1.285818          1.33
     1.285350         12.75
     1.284549          0.00
     1.284308          9.28
     1.280499          2.20
     1.280079          0.00
     1.279969          0.32
     1.278517          0.03
     1.275756          0.81
     1.274389          4.73
     1.273905          2.44
     1.273702          1.84
     1.272886          4.40
     1.270930          0.87
     1.268836          0.08
     1.268833          0.50
     1.268473          0.01
     1.267708          9.15
     1.267703          8.47
     1.266196          2.13
     1.266167          0.87
     1.264664          0.90
     1.262229          0.11
     1.261560          9.93
     1.260803          0.17
     1.260059          2.03
     1.259860          0.26
     1.259349          0.97
     1.258014          0.20
     1.256613          0.77
     1.256016          0.09
     1.255932          0.13
     1.254082          0.20
     1.252590          1.01
     1.251508          2.01
     1.251057          0.45
     1.250690          2.20
     1.250611          1.12
     1.250319          9.26
     1.250053          1.40
     1.247984          0.66
     1.247399          0.78
     1.247107          1.20
     1.244762          1.58
     1.244517          0.29
     1.244322          1.51
     1.244144          4.34
     1.243956         15.47
     1.242541          0.39
     1.241765          9.25
     1.241413          0.00
     1.241042          3.54
     1.240248          0.35
     1.239620          0.80
     1.238159          0.25
     1.238132          7.22
     1.238012          0.82
     1.236765          0.69
     1.235582          0.10
     1.232054          6.11
     1.231927          6.14
     1.230583          0.19
     1.230535          2.55
     1.230405          0.01
     1.227031          0.31
     1.226853          0.15
     1.225836         11.10
     1.225180          2.91
     1.224521         15.93
     1.224469          0.03
     1.223840          3.76
     1.220425          1.13
     1.220286          0.31
     1.219512          2.24
     1.218736          0.09
     1.215545          8.54
     1.215136          0.27
     1.214682          0.03
     1.213867          4.26
     1.212689          0.02
     1.212324          1.66
     1.212154          1.08
     1.211746          3.31
     1.211119         10.62
     1.210317          0.54
     1.209868          6.31
     1.207898          0.05
     1.207058          1.46
     1.206956          4.07
     1.206783          6.45
     1.206394          0.15
     1.203499          2.68
     1.202716          3.65
     1.199927          0.11
     1.198359          1.28
     1.196821          5.68
     1.196441          0.03
     1.196304          0.22
     1.196195          0.84
     1.195978         10.61
     1.195762          0.55
     1.195285          0.29
##############################################################################
###                            Comments                                    ###
##############################################################################
###   Diffraction pattern calculated by Match!. 
###   I/Ic calculated by Match!. 
##############################################################################


