##############################################################################
###               Crystal structure data exported by Match!                ###
##############################################################################
###                           Data published by:                           ###
###                                                                        ###
###               COD (Crystallography Open Database)
##############################################################################
data_4124065
_citation_journal_full    'Journal of the American Chemical Society'
_citation_journal_volume  '126'
_citation_page_first  '9769'
_citation_page_last   '9775'
_citation_year  '2004'
_citation_title  'Chemical evaluation of hypothetical uninodal zeolites'
loop_
_publ_author_name
  'Foster M.D.'
  'Friedrichs O.D.'
  'Bell R.G.'
  'Paz F.A.A.'
  'Klinowski J.'
_chemical_formula_sum  'O2 Si'
_chemical_name_common  'Silica'
_symmetry_space_group_name_H-M 'P b c a'
_space_group_IT_number 61
_space_group_crystal_system 'orthorhombic'
loop_
_symmetry_equiv_pos_as_xyz
   'x, y, z'
   '-x+0.5, -y, z+0.5'
   'x+0.5, -y+0.5, -z'
   '-x, y+0.5, -z+0.5'
   '-x, -y, -z'
   'x+0.5, y, -z+0.5'
   '-x+0.5, y+0.5, z'
   'x, -y+0.5, z+0.5'
_cell_length_a        8.77244
_cell_length_b        8.78329
_cell_length_c       16.18649
_cell_angle_alpha    90.0000
_cell_angle_beta     90.0000
_cell_angle_gamma    90.0000
_cell_formula_units_Z 32
loop_
_atom_site_label
_atom_site_fract_x
_atom_site_fract_y
_atom_site_fract_z
_atom_site_occupancy
_atom_site_B_iso_or_equiv
si      0.548   0.024   0.844    1.00000    1.000
o      0.114   0.365   0.375    1.00000    1.000
o      0.595   0.072   0.400    1.00000    1.000
si      0.726   0.202   0.406    1.00000    1.000
o      0.679   0.155   0.850    1.00000    1.000
o      0.750   0.257   0.500    1.00000    1.000
o      0.614   0.864   0.875    1.00000    1.000
si      0.048   0.524   0.344    1.00000    1.000
o      0.179   0.655   0.350    1.00000    1.000
o      0.095   0.572   0.900    1.00000    1.000
si      0.226   0.702   0.906    1.00000    1.000
o      0.994   0.500   0.250    1.00000    1.000
_cell_measurement_wavelength    1.541874
_cell_measurement_radiation   'x-rays'
_exptl_crystal_density_diffrn    2.559000
loop_
_pd_peak_d_spacing
_pd_peak_intensity
     8.093245          0.00
     5.948428          0.00
     5.795407          0.00
     4.925216        137.53
     4.391645          9.04
     4.386220          9.29
     4.238415          0.00
     4.072054          0.00
     4.046622       1000.00
     3.924123          0.00
     3.859978        376.24
     3.856293        373.53
     3.816325        207.89
     3.813653        209.93
     3.674519          0.00
     3.533081          0.00
     3.530960          0.00
     3.406005          0.00
     3.389830          0.00
     3.175084          2.16
     3.173545          2.00
     3.103442        972.79
     3.047926          0.00
     2.975904          2.54
     2.974214          2.60
     2.897704          0.00
     2.870343          0.00
     2.818162          0.00
     2.817086          0.00
     2.750145          0.00
     2.737181          0.00
     2.734553          0.00
     2.697748          0.00
     2.690171          0.00
     2.626825         62.57
     2.624502         61.71
     2.605823          0.00
     2.578572          0.00
     2.497947        210.88
     2.497198        209.74
     2.474155          0.08
     2.469272          0.00
     2.467342          0.00
     2.462608         85.65
     2.435119          0.00
     2.408022          7.65
     2.406903          8.28
     2.370104          0.00
     2.331854          0.00
     2.330837          0.00
     2.298681         24.92
     2.297902         24.39
     2.289797          2.09
     2.288258          1.99
     2.240292          0.00
     2.223609          0.00
     2.219536          5.18
     2.218660          5.44
     2.195822         11.57
     2.193110         11.91
     2.175892          0.00
     2.166869          0.00
     2.127784          0.00
     2.119208          0.44
     2.116769          0.44
     2.111897         18.64
     2.109634         18.71
     2.106633          0.00
     2.086470          0.00
     2.085742          0.00
     2.059952          0.00
     2.057852          0.00
     2.052264          0.00
     2.046061          0.00
     2.036027          0.00
     2.033843          0.00
     2.023311         40.58
     2.004499         16.38
     1.992580         35.52
     1.992200         35.14
     1.982809          0.00
     1.981291          0.19
     1.979422          0.17
     1.971551          0.00
     1.963517          8.03
     1.962062          8.38
     1.949228          0.00
     1.947804          0.00
     1.946032          4.44
     1.945441          4.69
     1.935067          2.35
     1.934138          2.32
     1.931802          0.00
     1.929989         14.35
     1.928147         13.94
     1.923684          0.00
     1.908163         69.56
     1.906826         68.90
     1.884911          0.00
     1.883301          0.00
     1.854242          0.00
     1.845134          0.00
     1.843926          0.00
     1.842148          0.00
     1.837657          0.03
     1.837259          0.03
     1.817229          0.00
     1.807627          0.00
     1.807154          0.00
     1.798617          0.00
     1.798337          0.00
     1.779450         25.90
     1.778096         25.80
     1.777017          0.00
     1.776297          0.00
     1.766540          5.15
     1.765480          5.44
     1.755268          0.00
     1.745635         22.41
     1.745038         22.85
     1.743338          0.00
     1.727442          0.00
     1.715955          0.00
     1.715388          0.00
     1.714660          0.00
     1.712792          0.00
     1.710861          0.00
     1.703002          1.10
     1.701736          1.09
     1.694915         13.24
     1.684730         48.97
     1.682892         48.74
     1.678847          0.00
     1.677936          0.00
     1.676803          6.02
     1.676425          6.10
     1.671791          0.00
     1.670668          0.00
     1.669685          2.60
     1.669162          2.49
     1.664340          0.00
     1.663843          0.00
     1.641739          2.19
     1.640876          0.00
     1.639178          0.00
     1.635331          1.34
     1.635171         40.14
     1.634961         39.75
     1.634770          1.28
     1.630738          0.00
     1.622524          1.86
     1.621087          1.83
     1.618649          0.00
     1.610774          0.00
     1.610305          0.00
     1.609702          0.00
     1.598609          0.00
     1.597234          0.00
     1.592285          0.00
     1.591779          0.00
     1.587542         16.17
     1.586772         15.74
     1.584862          0.87
     1.583332          0.81
     1.566686         10.29
     1.566266          5.15
     1.565761         10.25
     1.560997          0.10
     1.559718          0.12
     1.556221          0.00
     1.556083          0.00
     1.551721         44.52
     1.544640          0.00
     1.543460         56.01
     1.543047         55.79
     1.541872          0.00
     1.523963          0.00
     1.520618          0.00
     1.518772         40.22
     1.518548         39.89
     1.512539          0.00
     1.511374          0.00
     1.509593          0.00
     1.509152          0.00
     1.499354          0.00
     1.498490          0.00
     1.496715          0.00
     1.496510          0.00
     1.496070          0.00
     1.491274          0.00
     1.487952          0.24
     1.487107          0.23
     1.480422          6.46
     1.479590          6.40
     1.471619          0.00
     1.471262          0.00
     1.470802          0.00
     1.466999          0.00
     1.466240          0.00
     1.463882          6.69
     1.462073          7.00
     1.457931          0.00
     1.456394          3.86
     1.455355          3.96
     1.451781          9.60
     1.450605          9.56
     1.450401          0.00
     1.449618          0.00
     1.448852          6.48
     1.446699          4.50
     1.446567          0.00
     1.446457          4.64
     1.442228          0.00
     1.440507          8.83
     1.438784          8.75
     1.438205          8.90
     1.436537          9.03
     1.435172          0.00
     1.431812          0.00
     1.421470          0.00
     1.419860          0.00
     1.416160          0.00
     1.412805          0.00
     1.411283          8.89
     1.410562          8.82
     1.409081          0.00
     1.408543          0.00
     1.399280          0.00
     1.398455          2.28
     1.398403         28.85
     1.398104          2.25
     1.398096         28.60
     1.395579          0.00
     1.395259          0.00
     1.394832          0.00
     1.394665          0.00
     1.393311          0.00
     1.391366          0.00
     1.388588          1.22
     1.387216          1.23
     1.383507          0.00
     1.382149          0.00
     1.381348          0.00
     1.380334          0.00
     1.377939         10.57
     1.377813         10.58
     1.376577          5.73
     1.375073          6.03
     1.374189          2.46
     1.373565          2.52
     1.371057          0.00
     1.368590          1.27
     1.367276          1.31
     1.366165         14.92
     1.365797         14.84
     1.365349          0.00
     1.364696          0.00
     1.359935          0.00
     1.358525          0.00
     1.357351          0.00
     1.351797          0.00
     1.351441          0.00
     1.348874         14.05
     1.348013          0.00
     1.347817          0.00
     1.345086          0.00
     1.344767          0.00
     1.343521          0.00
     1.333849          0.00
     1.333206          0.00
     1.332671          2.92
     1.331874          3.02
     1.328826         12.90
     1.328487         12.90
     1.326239          0.00
     1.326137          0.00
     1.325875          0.00
     1.325790          0.00
     1.325539          0.00
     1.318692         15.86
     1.318108          0.00
     1.317406         15.91
     1.314864          0.31
     1.314280          0.31
     1.313412          4.55
     1.312251          4.51
     1.311565          0.78
     1.310697          0.73
     1.308041          0.00
     1.304752         21.65
     1.303791         20.98
     1.302912          0.38
     1.302344          0.37
     1.300255          0.00
     1.299973          0.00
     1.298548          0.00
     1.298232          0.00
     1.292218          0.00
     1.291285          0.00
     1.289424          0.27
     1.289286          0.28
     1.288775          0.00
     1.288493          0.00
     1.288260          0.00
     1.286659          2.45
     1.285431          2.39
     1.276146          0.00
     1.275716          0.00
     1.275616          0.00
     1.275081          0.00
     1.274855          0.10
     1.273039          0.00
     1.272108         16.73
     1.271882          0.00
     1.271218         16.20
     1.269683          0.00
     1.268994          0.00
     1.262499          3.40
     1.262208          3.41
     1.261854          0.00
     1.261339          0.00
     1.259415          3.23
     1.259254          3.19
     1.256390         17.28
     1.256168         17.09
     1.248974         35.03
     1.248599         34.61
     1.245469          0.00
     1.244633          0.00
     1.243977          0.00
     1.243237          0.00
     1.238473          0.00
     1.238446          0.00
     1.237742          0.00
     1.237077         35.26
     1.237013          0.00
     1.236863          0.00
     1.234636          4.59
     1.233671          4.79
     1.231304          9.18
     1.227739         13.79
     1.227027          9.62
     1.226316         13.94
     1.224840          0.00
     1.224749          9.30
     1.223719          9.30
     1.222400          0.00
     1.222264          0.00
     1.222001          0.00
     1.220794          0.00
     1.217560          1.28
     1.216981          1.27
     1.214130          0.00
     1.213557          8.93
     1.213556          0.00
     1.213330          0.09
     1.213101          0.09
     1.212783          8.55
     1.210703          7.10
     1.210452          0.00
     1.210276          7.12
     1.209770          0.00
     1.208072          0.63
     1.207995         10.10
     1.207542         10.03
     1.207478          0.67
     1.206365          0.00
     1.204011          1.10
     1.203451          1.08
     1.203028         14.01
     1.201774         14.04
     1.199141          0.00
     1.197900          0.00
     1.197113          0.00
     1.193183          0.00
     1.191958          0.00
     1.190438          0.00
     1.190118          0.00
     1.189929          0.00
     1.189686          0.00
     1.189573          0.00
     1.187434          4.19
     1.187157          0.00
     1.186885          3.57
     1.186805          3.47
     1.186790          0.00
     1.186147          4.06
     1.186014          0.13
     1.185052          0.15
     1.179944          0.00
     1.179812          0.00
     1.179552          0.00
     1.179336          0.52
     1.179099          0.51
     1.178920          0.00
     1.177694          0.00
     1.177527          0.00
     1.177297         11.99
     1.177213          0.00
     1.176987          0.00
     1.176120         12.00
     1.175321          0.00
     1.174872          0.00
     1.174411          0.00
     1.165927          0.87
     1.165419          0.86
     1.159681          0.00
     1.159081          0.00
     1.158482          0.00
     1.156178          0.00
     1.156086          0.00
     1.155579          0.00
     1.154571          0.00
     1.154176          0.00
     1.150166          0.00
     1.149340         11.63
     1.148951         11.63
     1.148808          0.00
     1.148297          0.00
     1.146265          0.00
     1.144899          0.94
     1.144129          0.95
     1.141553          0.02
     1.140600          0.01
     1.139623          0.00
     1.139601          0.00
     1.139245          0.00
     1.139148          0.79
     1.138509          0.79
     1.136627          4.45
     1.136559          0.00
     1.136152          0.00
     1.135964          0.00
     1.135335          0.00
     1.135013          0.00
     1.130427          5.59
     1.129943          0.00
     1.129386          5.65
     1.128266          2.28
     1.127820         15.78
     1.127714          3.93
     1.127659         15.86
     1.127618          0.00
     1.127162          2.31
     1.125944          2.28
     1.125144          2.34
     1.123765          0.00
     1.121315          0.27
     1.121066          0.27
     1.120146          0.00
     1.118816          0.00
     1.118277          0.00
     1.118080          0.01
     1.117990          0.01
     1.113329          0.00
     1.113086          0.00
     1.111805          1.06
     1.111540          1.08
     1.109768          3.70
     1.109330          3.77
     1.109042          0.00
     1.108939          1.70
     1.108601          2.86
     1.108492          2.90
     1.108065          1.72
     1.102511          1.14
     1.102167          1.15
     1.101271          0.00
     1.100391          2.99
     1.100309          0.00
     1.100156          2.97
     1.099112          0.00
     1.099054          0.00
     1.098480          0.00
     1.098431          0.00
     1.097911          0.00
     1.096555          0.00
     1.095394          0.00
     1.094238          0.00
     1.093734          0.00
     1.093230          0.00
     1.092478          1.91
     1.092039          1.94
     1.090357          0.89
     1.090170          0.90
     1.089101          0.00
##############################################################################
###                            Comments                                    ###
##############################################################################
###   Diffraction pattern calculated by Match!. 
###   I/Ic calculated by Match!. 
###   Space group has been derived from given symmetry operations. 
##############################################################################


