##############################################################################
###               Crystal structure data exported by Match!                ###
##############################################################################
###                           Data published by:                           ###
###                                                                        ###
###               COD (Crystallography Open Database)
##############################################################################
data_1532120
_citation_journal_full    'Physical Review, Serie 3. B - Condensed Matter (18,1978-)'
_citation_journal_volume  '65'
_citation_page_first  '064112'
_citation_page_last   '1-064112-8'
_citation_year  '2002'
_citation_title  'High-pressure structural studies of hematite Fe2 O3'
loop_
_publ_author_name
  'Rozenberg G.Kh.'
  'Pasternak M.P.'
  'Dubrovinskii L.S.'
  'Naaman O.'
  'Le Bihan T.'
  'Ahuja R.'
_chemical_formula_sum  'Fe2 O3'
_chemical_name_mineral  'Hematite'
_chemical_name_common  'Iron(III) oxide'
_symmetry_space_group_name_H-M 'R -3 c'
_space_group_IT_number 167
_space_group_crystal_system 'trigonal (hexagonal axes)'
loop_
_symmetry_equiv_pos_as_xyz
   'x, y, z'
   'x+0.66667, y+0.33333, z+0.33333'
   'x+0.33333, y+0.66667, z+0.66667'
   '-y, x-y, z'
   '-y+0.66667, x-y+0.33333, z+0.33333'
   '-y+0.33333, x-y+0.66667, z+0.66667'
   '-x+y, -x, z'
   '-x+y+0.66667, -x+0.33333, z+0.33333'
   '-x+y+0.33333, -x+0.66667, z+0.66667'
   'x-y, -y, -z+0.5'
   'x-y+0.66667, -y+0.33333, -z+0.83333'
   'x-y+0.33333, -y+0.66667, -z+0.16667'
   '-x, -x+y, -z+0.5'
   '-x+0.66667, -x+y+0.33333, -z+0.83333'
   '-x+0.33333, -x+y+0.66667, -z+0.16667'
   'y, x, -z+0.5'
   'y+0.66667, x+0.33333, -z+0.83333'
   'y+0.33333, x+0.66667, -z+0.16667'
   '-x, -y, -z'
   '-x+0.66667, -y+0.33333, -z+0.33333'
   '-x+0.33333, -y+0.66667, -z+0.66667'
   'y, -x+y, -z'
   'y+0.66667, -x+y+0.33333, -z+0.33333'
   'y+0.33333, -x+y+0.66667, -z+0.66667'
   'x-y, x, -z'
   'x-y+0.66667, x+0.33333, -z+0.33333'
   'x-y+0.33333, x+0.66667, -z+0.66667'
   '-x+y, y, z+0.5'
   '-x+y+0.66667, y+0.33333, z+0.83333'
   '-x+y+0.33333, y+0.66667, z+0.16667'
   'x, x-y, z+0.5'
   'x+0.66667, x-y+0.33333, z+0.83333'
   'x+0.33333, x-y+0.66667, z+0.16667'
   '-y, -x, z+0.5'
   '-y+0.66667, -x+0.33333, z+0.83333'
   '-y+0.33333, -x+0.66667, z+0.16667'
_cell_length_a        4.84540
_cell_length_b        4.84540
_cell_length_c       12.81800
_cell_angle_alpha    90.0000
_cell_angle_beta     90.0000
_cell_angle_gamma   120.0000
_cell_formula_units_Z 6
loop_
_atom_site_label
_atom_site_fract_x
_atom_site_fract_y
_atom_site_fract_z
_atom_site_occupancy
_atom_site_B_iso_or_equiv
o      0.000   0.356   0.250    1.00000    1.000
fe      0.000   0.000   0.353    1.00000    1.000
_cell_measurement_wavelength    1.541874
_cell_measurement_radiation   'x-rays'
_exptl_crystal_density_diffrn    6.104000
loop_
_pd_peak_d_spacing
_pd_peak_intensity
     3.510684        189.35
     2.546804       1000.00
     2.422700        698.29
     2.136333         28.75
     2.107481        160.59
     1.993989         68.73
     1.755342        219.77
     1.602344        427.37
     1.574026          2.39
     1.539587         34.24
     1.496846         31.52
     1.421454        215.90
     1.398746        248.61
     1.348772          1.10
     1.273402         23.13
     1.227784         12.31
     1.225883         74.84
     1.211350         56.30
     1.198856          0.61
     1.170228         26.66
     1.165418          8.55
     1.159060          0.79
     1.145100          5.62
     1.127183         22.49
     1.093916         85.65
     1.093826         56.10
     1.068167          2.81
     1.059734          0.54
     1.053740         71.59
     1.035282          1.68
##############################################################################
###                            Comments                                    ###
##############################################################################
###   Diffraction pattern calculated by Match!. 
###   I/Ic calculated by Match!. 
##############################################################################


