##############################################################################
###               Crystal structure data exported by Match!                ###
##############################################################################
###                           Data published by:                           ###
###                                                                        ###
###               COD (Crystallography Open Database)
##############################################################################
data_2300131
_citation_journal_full    'Journal of Applied Crystallography'
_citation_journal_volume  '40(4)'
_citation_page_first  '761'
_citation_page_last   '770'
_citation_year  '2007'
_citation_title  'Crystal structures and thermal expansion of \a-MgSO~4~ and \b-MgSO~4~from 4.2 to 300K by neutron powder diffraction'
loop_
_publ_author_name
  'Fortes A. D.'
  'Wood I. G.'
  'Vocadlo L.'
  'Brand H. E. A.'
  'Knight K. S.'
_chemical_formula_sum  'Mg O4 S'
_chemical_name_common  'Magnesium sulfate'
_symmetry_space_group_name_H-M 'P b n m'
_space_group_IT_number 62
_space_group_crystal_system 'orthorhombic'
loop_
_symmetry_equiv_pos_as_xyz
   'x, y, z'
   '-x, -y, z+0.5'
   'x+0.5, -y+0.5, -z'
   '-x+0.5, y+0.5, -z+0.5'
   '-x, -y, -z'
   'x, y, -z+0.5'
   '-x+0.5, y+0.5, z'
   'x+0.5, -y+0.5, z+0.5'
_cell_length_a        4.73431
_cell_length_b        8.58171
_cell_length_c        6.67266
_cell_angle_alpha    90.0000
_cell_angle_beta     90.0000
_cell_angle_gamma    90.0000
_cell_formula_units_Z 4
loop_
_atom_site_label
_atom_site_fract_x
_atom_site_fract_y
_atom_site_fract_z
_atom_site_occupancy
_atom_site_B_iso_or_equiv
o      0.339   0.126   0.069    1.00000    0.649
o      0.463   0.352   0.250    1.00000    0.536
o      0.776   0.127   0.250    1.00000    0.623
s      0.482   0.180   0.250    1.00000    0.702
mg      0.000   0.000   0.000    1.00000    0.465
_cell_measurement_wavelength    1.541874
_cell_measurement_radiation   'x-rays'
_cell_measurement_temperature    4.000000
_exptl_crystal_density_diffrn    2.949000
loop_
_pd_peak_d_spacing
_pd_peak_intensity
     4.290855          1.03
     4.145343         36.13
     3.861171          2.87
     3.609058        405.10
     3.521177       1000.00
     3.336330         39.81
     3.179338         21.56
     2.870185          2.86
     2.633837        256.05
     2.599091         73.30
     2.448347        211.66
     2.367155         61.35
     2.301631        150.05
     2.298505          0.02
     2.281935         82.98
     2.159165         11.84
     2.145427         40.74
     2.072672          0.33
     2.042451         23.81
     2.013120         45.12
     1.979379          7.40
     1.974687          0.84
     1.973878         28.33
     1.959916         56.77
     1.954140          0.10
     1.930586          5.47
     1.883512          0.59
     1.875372          0.02
     1.823710         14.20
     1.822507          0.42
     1.804529         44.64
     1.760588        125.24
     1.759188          7.34
     1.686194          0.02
     1.668165         69.95
     1.646308          8.70
     1.613578          1.45
     1.600241          2.19
     1.592774          7.46
     1.589669         22.71
     1.568373         39.31
     1.554799          0.07
     1.552079         19.55
     1.547558         19.01
     1.546391         16.00
     1.544150          8.31
     1.535738         16.47
     1.516348          3.13
     1.511722         28.93
     1.481109          2.71
     1.477179          7.87
     1.468037         26.21
     1.452610         89.97
     1.445917          2.22
     1.435092         32.07
     1.430285         25.28
     1.410263          3.16
     1.407255         52.64
     1.398518          0.00
     1.389525          9.52
     1.381781         10.07
     1.378588         34.78
     1.369167          0.29
     1.363588         33.02
     1.360343          0.20
     1.353711          1.85
     1.353074          1.06
     1.346694          2.44
     1.341223          0.47
     1.316919          0.01
     1.314578          1.07
     1.306085          6.43
     1.299545          0.18
     1.293308          9.09
     1.287057          5.95
     1.284476          1.06
     1.282722          0.08
     1.276623          1.36
     1.274321         15.37
     1.272822         46.75
     1.271236          0.32
     1.270325         29.63
     1.268748          0.03
     1.266655         12.76
     1.248775          5.86
     1.232793          1.17
     1.230894          0.00
     1.230524          0.13
     1.224174         23.57
     1.204078         17.91
     1.203019          7.35
     1.187924          0.52
     1.186813          5.95
     1.183578          9.26
     1.178461          3.57
     1.173726          2.54
     1.172479          0.03
     1.171767          0.03
     1.168474         11.42
     1.165965          0.17
     1.161689          0.75
     1.159790          0.14
     1.154787          1.12
     1.151992          2.29
     1.150816          4.46
     1.149253          0.91
     1.144474          5.70
     1.140967          0.13
     1.136311          1.38
     1.133188          3.38
     1.124645          3.41
     1.122062          0.30
     1.118173          0.19
     1.115466          3.91
     1.112110          5.86
     1.107556          1.11
     1.106161          5.31
     1.103688          2.45
     1.102058          0.54
     1.097087         12.32
     1.093660          1.42
     1.088624          0.26
     1.085815         17.35
     1.079583         18.38
     1.079260          0.26
     1.076977          2.48
     1.076539         10.63
     1.074419          0.10
     1.074127         12.32
     1.072714          2.38
     1.072467          4.61
     1.067656          0.80
     1.064131         23.20
     1.059779          0.02
     1.059115          0.02
     1.058337          2.61
     1.049742          0.24
     1.047078         15.19
     1.046661          2.01
     1.046194          0.00
     1.039248          0.06
     1.037195          0.48
     1.036336          1.38
     1.034924          1.74
     1.033567          0.24
     1.029703         16.18
     1.028380          9.66
     1.024059          4.80
     1.022108          4.70
     1.021225         11.06
     1.019014          3.38
     1.015189         10.62
     1.012548          0.03
     1.011905          4.83
     1.011107          0.38
     1.010047          0.02
     1.006560          0.01
##############################################################################
###                            Comments                                    ###
##############################################################################
###   Sigma Ultra MgSO4 M7506 dried at 400 deg C for 24 hr.
###   Diffraction pattern calculated by Match!. 
###   I/Ic calculated by Match!. 
###   Space group has been derived from given symmetry operations. 
##############################################################################


