##############################################################################
###               Crystal structure data exported by Match!                ###
##############################################################################
###                           Data published by:                           ###
###                                                                        ###
###               COD (Crystallography Open Database)
##############################################################################
data_9013784
_citation_journal_full    'The Canadian Mineralogist'
_citation_journal_volume  '47'
_citation_page_first  '165'
_citation_page_last   '172'
_citation_year  '2009'
_citation_title  'The crystal structure of burgessite, Co2(H2O)4[AsO3(OH)]2(H2O), and its relation to erythrite Locality: Keeley mine, South Lorrain Township, Timiskaming District, Ontario, Canada'
loop_
_publ_author_name
  'Cooper M. A.'
  'Hawthorne F. C.'
_chemical_formula_sum  'As Co H7 O6.5'
_chemical_name_mineral  'Burgessite'
_symmetry_space_group_name_H-M 'P 1 21/n 1'
_space_group_IT_number 14
_space_group_crystal_system 'monoclinic'
loop_
_symmetry_equiv_pos_as_xyz
   'x, y, z'
   '-x+0.5, y+0.5, -z+0.5'
   '-x, -y, -z'
   'x+0.5, -y+0.5, z+0.5'
_cell_length_a        4.70580
_cell_length_b        9.29900
_cell_length_c       12.73800
_cell_angle_alpha    90.0000
_cell_angle_beta     98.9330
_cell_angle_gamma    90.0000
loop_
_atom_site_label
_atom_site_fract_x
_atom_site_fract_y
_atom_site_fract_z
_atom_site_occupancy
_atom_site_B_iso_or_equiv
co      0.450   0.460   0.379    1.00000    1.342
as      0.484   0.188   0.032    1.00000    1.167
o      0.148   0.633   0.359    1.00000    1.500
o      0.281   0.408   0.517    1.00000    1.104
o      0.759   0.297   0.419    1.00000    1.500
o      0.600   0.361   0.068    1.00000    2.447
o      0.627   0.531   0.249    1.00000    1.500
o      0.170   0.332   0.277    1.00000    1.816
o      0.444   0.052   0.428    0.50000    2.447
h      0.640   0.470   0.186    1.00000    2.366
h      0.818   0.573   0.271    1.00000    2.366
h      0.040   0.270   0.312    1.00000    2.366
h      0.260   0.272   0.228    1.00000    2.366
_cell_measurement_wavelength    1.541874
_cell_measurement_radiation   'x-rays'
_exptl_crystal_density_diffrn    2.954000
loop_
_pd_peak_d_spacing
_pd_peak_intensity
     7.478558       1000.00
     6.291748        259.60
     5.211026         16.01
     4.649500          0.03
     4.598979         22.30
     4.361309          6.15
     4.158082         41.21
     4.155935         64.91
     4.122372         32.68
     3.823521         11.24
     3.794243         11.06
     3.739279         78.52
     3.714379          0.02
     3.386722         84.66
     3.287418          0.23
     3.269685        180.43
     3.266555         58.14
     3.182239         92.47
     3.145874          1.53
     3.114430          0.83
     3.098546        197.46
     3.054591         57.57
     3.009701         46.24
     2.979966         44.30
     2.898386         45.23
     2.790609          7.97
     2.780546         10.45
     2.767090         74.30
     2.737488         37.11
     2.695351         56.74
     2.605513         51.19
     2.578946        155.00
     2.570358          1.34
     2.492853         39.70
     2.484685         39.49
     2.461847         13.05
     2.459620          9.06
     2.429302          1.11
     2.408825          0.56
     2.372811         63.68
     2.356241         17.96
     2.324750          0.25
     2.324361         29.16
     2.317240          9.92
     2.299490         29.92
     2.299142          5.37
     2.286555          1.46
     2.286064          1.24
     2.280063          3.59
     2.254983          2.81
     2.232252         11.91
     2.213268         10.36
     2.207951          1.33
     2.180655          1.62
     2.163752         13.87
     2.157594         17.84
     2.124089          0.29
     2.117052         11.70
     2.113496          6.71
     2.098647         11.05
     2.097249          0.82
     2.084401          3.19
     2.081969          5.31
     2.079250         11.37
     2.079041          0.05
     2.077967          3.97
     2.074741          2.72
     2.061186          0.24
     2.045862         23.99
     2.033333         29.39
     2.031670         20.06
     2.028894         11.13
     2.027951          0.24
     2.025819          0.27
     2.016402          0.73
     2.006893          9.68
     1.986784         10.21
     1.979392         10.12
     1.975125          0.24
     1.953794         24.21
     1.934612          8.16
     1.916648          0.23
     1.915176          0.14
     1.911761          1.83
     1.900165          0.36
     1.897122         28.18
     1.884134          8.58
     1.873591          0.08
     1.872020          5.72
     1.869639          1.90
     1.863291          0.04
     1.859601          4.24
     1.857189         24.09
     1.846791         16.06
     1.839814         22.76
     1.821337         16.49
     1.813479          6.43
     1.807434         10.56
     1.792830          7.07
     1.784124          5.13
     1.783514         24.18
     1.775988          0.06
     1.771750          0.57
     1.767645          0.31
     1.764966         10.57
     1.744450          0.91
     1.740440         11.81
     1.737009          0.79
     1.728297          8.39
     1.726741          7.70
     1.726006          5.96
     1.724788          5.24
     1.724156          0.04
     1.714542         12.17
     1.707679          0.14
     1.700412          0.02
     1.700171          3.78
     1.697573          3.94
     1.695771          9.47
     1.693361          0.68
     1.690236         14.58
     1.686127          0.24
     1.681712         10.38
     1.676686         16.41
     1.665964         23.09
     1.660578          2.07
     1.655618          0.40
     1.653347          6.08
     1.643709          2.56
     1.641185         10.10
     1.634842          1.84
     1.633277         17.36
     1.630175          2.09
     1.626787         31.80
     1.607352          6.18
     1.600956          4.06
     1.595385          1.26
     1.593195         11.34
     1.591120          6.81
     1.590891         23.14
     1.572937          3.44
     1.572411          6.31
     1.567771          0.00
     1.566267          0.68
     1.565270          0.14
     1.562575          3.43
     1.557215          0.79
     1.555052          0.54
     1.551934          9.54
     1.550929          2.06
     1.550906         19.04
     1.549833          4.32
     1.549273          0.98
     1.545953          1.11
     1.543863          4.87
     1.540406          1.34
     1.538210          1.43
     1.538200          4.98
     1.532993          0.95
     1.530683         19.96
     1.528497          0.00
     1.527295          1.53
     1.521829          0.18
     1.520234          0.39
     1.512577          5.35
     1.509781          4.23
     1.509021          3.07
     1.504850          0.99
     1.503588         10.42
     1.495712          0.05
     1.490267          0.82
     1.489983          7.46
     1.486063          0.02
     1.485590         10.42
     1.483734          1.68
     1.480665          5.72
     1.478171          5.93
     1.476317          2.73
     1.470276          0.51
     1.470079          0.22
     1.468680          3.67
     1.465896          3.44
     1.464144         10.00
     1.463758          2.60
     1.458798          9.03
     1.455899          3.18
     1.453770          0.94
     1.452165          3.18
     1.452145          6.52
     1.451074          6.18
     1.449193          2.39
     1.447544         11.76
     1.446040          6.37
     1.435972          3.65
     1.435707         10.32
     1.431908          5.24
     1.427825         17.42
     1.426912          8.82
     1.422079          2.85
     1.421752          4.48
     1.418520          4.10
     1.416374          2.78
     1.415358          7.57
     1.414131          7.85
     1.414004          3.83
     1.409279          2.79
     1.409156          0.51
     1.408125          0.00
     1.407903          4.79
     1.405421         14.19
     1.402671          0.22
     1.400230          4.69
     1.399003          0.17
     1.397454          2.39
     1.395304          0.01
     1.394888          9.43
     1.392253          6.17
     1.391488          1.65
     1.390273          1.04
     1.386997          5.81
     1.386970          0.01
     1.386027          4.78
     1.385812          2.88
     1.385312         16.74
     1.384621          3.74
     1.383545          0.80
     1.382625          3.63
     1.381050          0.00
     1.374124          0.19
     1.372460          0.15
     1.370190          0.07
     1.370016          1.74
     1.368744          0.26
     1.366711          2.02
     1.361855          7.86
     1.359608          2.07
     1.357806          5.18
     1.357332          0.96
     1.347675          1.06
     1.340750          0.01
     1.338937          5.19
     1.338842          0.22
     1.336523          1.31
     1.332861          1.38
     1.327635          0.00
     1.321087          2.62
     1.319672         10.37
     1.315724          5.48
     1.315424          0.01
     1.314196          0.16
     1.312798          0.00
     1.312571          2.76
     1.311821          1.19
     1.307578          0.89
     1.302756          0.68
     1.299817          0.41
     1.299773          1.82
     1.298833          6.00
     1.298574         10.47
     1.297569          0.59
     1.296940          4.32
     1.296851          1.48
     1.296514          0.07
     1.294225          3.44
     1.294110          0.06
     1.292541          0.14
     1.292296          0.00
     1.289473          2.79
     1.289390          2.06
     1.285380          0.63
     1.285179          2.86
     1.285014          0.75
     1.282815          8.00
     1.282036          0.13
     1.279790          1.12
     1.277606          0.38
     1.277300          0.50
     1.276252          1.42
     1.276070          0.76
     1.275749          0.03
     1.275019          0.95
     1.274507          1.21
     1.272918          6.44
     1.272338          0.19
     1.271694          0.60
     1.266432          1.18
     1.266192          0.03
     1.265357          0.86
     1.264748          0.41
     1.263910          4.80
     1.263495          0.06
     1.262416          0.03
     1.262310          2.32
     1.258350          0.51
     1.253645          1.19
     1.252103          0.67
     1.251142          0.69
     1.246984          2.39
     1.246426          0.01
     1.243196          1.09
     1.242898          0.28
     1.242342          3.26
     1.241480          0.15
     1.238581          1.38
     1.238126          0.58
     1.236694         11.21
     1.236567          1.08
     1.232695          0.06
     1.232214          0.00
     1.230923          1.37
     1.230277          0.09
     1.229810          0.82
     1.225777          0.74
     1.223790          1.10
     1.220805          2.88
     1.219012          0.00
     1.217865          1.13
     1.214651          0.43
     1.214501          3.51
     1.212907          0.27
     1.210898          0.77
     1.208085          3.04
     1.207983          1.44
     1.207627          2.20
     1.207553          0.74
     1.204412          0.93
     1.203764          0.34
     1.201471          1.12
     1.200994          0.45
     1.199461          0.17
     1.198690          0.13
     1.198163          6.52
     1.197715          1.17
     1.196098          0.47
     1.195025          1.22
     1.191157          0.86
     1.190850          3.42
     1.190497          1.79
     1.190044          0.57
     1.189961          2.97
     1.187339          0.39
     1.187051          0.02
     1.186406          0.56
     1.182929          1.30
     1.179735          1.77
     1.178120          0.62
     1.177039          0.01
     1.176866          0.51
     1.175928          6.30
     1.174809          0.01
     1.173813          5.00
     1.172165          1.93
     1.171375          0.81
     1.167786          6.48
     1.166637          0.18
     1.166514          0.08
     1.166252          0.32
     1.165936          1.88
     1.164823          4.04
     1.162879          0.12
     1.162375          2.89
     1.162180          1.61
     1.160547          0.00
     1.160195          0.42
     1.159134          0.79
     1.158620          0.76
     1.158513          1.29
     1.157447          0.42
     1.156666          0.98
     1.153977          0.27
     1.153351          1.11
     1.153209          0.68
     1.153139          1.06
     1.151707          1.80
     1.150276          0.00
     1.149745          0.07
     1.149571          3.02
     1.148545          1.45
     1.145054          3.33
     1.144374          1.98
     1.143278          0.15
     1.143124          0.70
     1.143032          2.69
     1.142393          2.35
     1.141056          1.24
     1.140577          0.01
     1.140032          0.20
     1.138339          0.44
     1.135395          1.34
     1.134651          0.11
     1.134347          4.53
     1.133513          2.07
     1.132645          0.05
     1.132447          0.20
     1.130799          0.08
     1.129511          0.11
     1.128907          2.07
     1.128210          0.65
     1.127869          1.47
     1.127658          0.17
     1.127492          1.10
     1.126937          1.00
     1.124640          0.20
     1.122642          0.07
     1.122240          5.70
     1.120679          1.89
     1.120159          0.74
     1.119918          0.14
     1.119881          0.02
     1.119415          1.29
     1.119257          0.22
     1.119230          1.48
     1.118629          0.19
     1.118413          0.04
     1.117576          0.05
     1.117304          2.01
     1.116126          0.26
     1.115495          0.81
     1.115414          0.36
     1.112410          0.31
     1.112187          0.01
     1.111653          0.06
     1.111282          0.21
     1.110978          0.05
     1.110885          0.43
     1.110826          0.41
     1.109475          4.40
     1.108251          0.49
     1.108017          1.55
     1.106634          0.03
     1.104534          0.03
     1.103975          0.00
     1.102782          0.23
     1.102185          0.67
     1.101426          0.06
     1.100169          2.19
     1.099467          0.68
     1.099423          2.82
     1.097949          0.79
     1.097034          0.05
     1.095806          1.27
     1.094365          0.23
     1.093341          5.10
     1.092804          0.20
     1.092781          0.00
     1.092659          0.18
     1.092169          1.27
     1.092093          0.29
     1.091731          0.00
     1.090885          0.33
     1.090799          0.01
     1.090327          0.75
     1.089895          0.56
     1.088852          3.06
     1.088489          0.01
     1.088206          0.10
     1.085312          0.67
     1.083455          2.42
     1.081876          3.80
     1.081459          0.66
     1.080773          0.01
     1.080497          0.01
     1.079593          1.07
     1.078850          2.64
     1.078797          0.40
     1.077977          1.67
     1.074454          0.06
     1.073200          0.48
     1.072835          0.01
     1.072037          3.26
     1.071910          1.96
     1.070877          3.05
     1.070796          0.02
     1.070583          0.00
     1.068365          0.01
     1.067058          4.53
     1.066784          0.00
     1.065765          1.25
     1.063793          1.52
     1.062853          0.52
     1.062045          0.27
     1.060746          0.26
     1.060058          1.00
     1.059885          0.06
     1.058526          0.69
     1.057204          0.00
     1.056872          1.68
     1.056748          0.63
     1.056347          0.40
     1.056278          0.22
     1.055258          0.27
     1.053921          2.16
     1.052026          2.71
     1.052025          0.32
     1.049913          0.27
     1.049324          0.19
     1.049044          0.06
     1.048717          2.07
     1.048625          1.58
     1.048003          0.52
##############################################################################
###                            Comments                                    ###
##############################################################################
###   Diffraction pattern calculated by Match!. 
###   I/Ic calculated by Match!. 
##############################################################################


