##############################################################################
###               Crystal structure data exported by Match!                ###
##############################################################################
###                           Data published by:                           ###
###                                                                        ###
###               COD (Crystallography Open Database)
##############################################################################
data_1010527
_citation_journal_full    'Proceedings of the Royal Society of London, Series A: Mathematical andPhysical Sciences (76,1906-)'
_citation_journal_volume  '146'
_citation_page_first  '570'
_citation_page_last   '582'
_citation_year  '1934'
_citation_title  'The Crystal Structure of Copper Sulfate Pentahydrate Cu S O~4~ (H~2~O)~5~'
loop_
_publ_author_name
  'Beevers C A'
  'Lipson H'
_chemical_formula_sum  'Cu H10 O9 S'
_chemical_name_common  'Copper sulfate pentahydrate'
_symmetry_space_group_name_H-M 'P -1'
_space_group_IT_number 2
_space_group_crystal_system 'triclinic'
loop_
_symmetry_equiv_pos_as_xyz
   'x, y, z'
   '-x, -y, -z'
_cell_length_a        6.12000
_cell_length_b       10.70000
_cell_length_c        5.97000
_cell_angle_alpha    82.2700
_cell_angle_beta    107.4300
_cell_angle_gamma   102.6700
_cell_formula_units_Z 2
loop_
_atom_site_label
_atom_site_fract_x
_atom_site_fract_y
_atom_site_fract_z
_atom_site_occupancy
_atom_site_B_iso_or_equiv
cu      0.000   0.000   0.000    1.00000    1.000
cu      0.500   0.500   0.000    1.00000    1.000
s      0.000   0.280   0.640    1.00000    1.000
o      0.890   0.150   0.690    1.00000    1.000
o      0.240   0.310   0.820    1.00000    1.000
o      0.860   0.380   0.640    1.00000    1.000
o      0.020   0.300   0.380    1.00000    1.000
o      0.830   0.080   0.160    1.00000    1.000
o      0.290   0.110   0.170    1.00000    1.000
o      0.480   0.410   0.320    1.00000    1.000
o      0.760   0.420   0.010    1.00000    1.000
o      0.430   0.120   0.650    1.00000    1.000
_cell_measurement_wavelength    1.541874
_cell_measurement_radiation   'x-rays'
_exptl_crystal_density_diffrn    2.192000
loop_
_pd_peak_d_spacing
_pd_peak_intensity
    10.410892         43.29
     5.733325        319.66
     5.680298        181.42
     5.479761        425.01
     5.205446        111.06
     5.148967        188.81
     4.838282         65.60
     4.753227         42.21
     4.732915       1000.00
     4.662836        266.64
     4.278214        103.59
     4.005358        100.21
     3.987331        475.94
     3.969158         11.89
     3.703775        563.97
     3.567611         31.80
     3.535132        168.50
     3.470297         22.46
     3.451390        105.05
     3.303373        351.27
     3.254361        159.52
     3.180505        119.72
     3.150318          0.38
     3.063839         74.10
     3.045991        104.45
     2.982635         20.15
     2.911526         22.41
     2.908370         64.56
     2.906514          0.25
     2.885722         24.15
     2.868544         12.47
     2.866662        157.64
     2.849426          0.04
     2.840149          9.29
     2.829602        287.52
     2.792938         89.60
     2.747263        337.06
     2.739880          0.22
     2.728741         81.50
     2.689997          9.00
     2.666362        228.80
     2.646364          2.21
     2.638850         15.47
     2.602723          2.27
     2.581417         39.10
     2.574483         13.60
     2.559405         64.88
     2.549613         29.73
     2.533179          5.27
     2.527811         32.30
     2.449614         24.37
     2.435550          0.86
     2.435312         58.94
     2.431906         13.99
     2.419141        224.70
     2.403253         70.30
     2.376613          0.36
     2.366457         72.57
     2.359113          9.73
     2.331418         36.05
     2.320811          9.20
     2.318559          2.80
     2.312566          6.46
     2.302586         31.48
     2.302052          8.24
     2.282134          8.69
     2.255439         30.16
     2.240153          8.00
     2.217168          0.00
     2.216707         18.30
     2.214244          0.01
     2.207400         27.58
     2.201102          4.20
     2.197894         58.46
     2.178012          6.99
     2.139107         90.50
     2.122356          8.32
     2.120836          0.38
     2.118036          0.00
     2.097663         10.44
     2.092912          0.83
     2.088100          2.24
     2.082178         23.47
     2.082027         63.89
     2.053437         22.30
     2.043590          0.07
     2.036920         12.59
     2.034594          6.18
     2.029447         30.68
     2.023301        158.76
     2.012177          7.17
     2.011453          2.28
     2.003413          1.21
     2.002679          8.31
     1.993665         38.96
     1.987023          1.64
     1.986812          0.04
     1.984579         58.30
     1.969148          3.57
     1.946296         22.02
     1.934885          7.16
     1.932761         37.99
     1.918275         28.77
     1.915202         21.73
     1.913640          6.17
     1.911108          0.05
     1.909888          8.50
     1.904251         62.62
     1.893433         93.59
     1.889697         39.04
     1.887599          8.45
     1.886569         37.89
     1.877527          0.46
     1.876159         10.55
     1.867492          0.02
     1.860528          0.24
     1.856971          8.60
     1.851888         53.46
     1.848034          9.24
     1.844778         21.34
     1.844232          9.64
     1.843575          6.69
     1.841625          0.13
     1.839096         10.70
     1.832778        116.51
     1.827584         29.26
     1.826587         50.84
     1.823926          0.64
     1.823194          7.70
     1.819503         31.04
     1.808423         58.62
     1.787178          0.37
     1.786986         11.55
     1.783805         52.17
     1.782301         10.39
     1.779466         23.06
     1.770135         67.44
     1.769855          3.34
     1.767566         37.01
     1.767313          2.12
     1.760928         16.69
     1.758634          0.26
     1.755488          2.79
     1.749391         11.61
     1.748428          0.62
     1.745781         13.05
     1.744872         37.25
     1.741760          4.17
     1.738572         11.23
     1.738317          0.66
     1.737648          0.19
     1.735149          2.48
     1.732115          5.18
     1.725695         21.91
     1.716322          0.11
     1.710708          0.30
     1.701850          4.71
     1.699264          0.19
     1.694823          3.81
     1.693271          5.37
     1.692876         21.87
     1.689985          7.21
     1.675415          4.76
     1.668125         32.66
     1.666480          3.89
     1.664783          2.29
     1.656217         25.55
     1.651687          6.39
     1.651404          0.27
     1.646467         29.46
     1.641341          5.22
     1.634667          2.39
     1.633020          1.68
     1.632182         39.95
     1.630167         84.80
     1.627181         15.16
     1.626208         20.79
     1.623016          2.02
     1.622586          0.01
     1.619998         30.17
     1.617933         30.45
     1.617576          2.65
     1.616974         47.44
     1.613412          0.20
     1.612761          0.01
     1.606155          0.10
     1.601950          7.41
     1.590284         13.95
     1.590252         47.57
     1.587992          9.36
     1.584409          0.04
     1.581084          0.12
     1.579875          4.88
     1.579212         11.73
     1.577638         35.68
     1.575159         38.18
     1.570728          3.03
     1.566582         26.33
     1.563133          4.03
     1.556763         24.41
     1.554279         13.46
     1.550807          3.29
     1.544275         13.79
     1.542331          2.17
     1.533957          5.38
     1.531976         11.74
     1.531919         18.07
     1.531716          4.59
     1.529613          1.75
     1.525911          0.01
     1.524507         26.52
     1.524146          3.38
     1.522996          6.73
     1.518314          0.32
     1.517744          3.88
     1.517194          4.11
     1.511476         10.83
     1.510844         24.28
     1.507858         12.32
     1.506889         13.06
     1.505318          3.87
     1.495183         13.06
     1.493172          5.20
     1.492155         22.22
     1.491317         11.31
     1.490722          2.31
     1.489767         21.28
     1.487270         10.88
     1.486854          0.53
     1.480461          3.23
     1.479978          7.99
     1.478136          1.00
     1.477664         22.02
     1.472986          0.46
     1.471376          0.28
     1.467860          8.70
     1.465867          1.36
     1.465559          0.53
     1.463519         11.58
     1.460827          3.98
     1.457728          1.81
     1.455763         17.35
     1.455415          2.31
     1.454185          2.19
     1.453257         13.05
     1.442861          5.60
     1.439226          0.56
     1.438497          7.51
     1.436015         10.91
     1.435591          5.03
     1.434272          3.03
     1.434086          0.48
     1.433331         27.80
     1.432822          0.36
     1.431014          2.13
     1.430181          0.23
     1.426113          3.46
     1.426071          0.18
     1.424713          0.57
     1.424575         16.53
     1.423296          4.21
     1.421183          0.43
     1.420899          3.50
     1.420081         16.40
     1.420074          0.01
     1.419682          0.06
     1.419442          2.60
     1.417670          8.53
     1.414801          1.15
     1.413399          2.24
     1.413242          0.47
     1.409232         31.82
     1.408965          5.63
     1.408843          0.50
     1.408283          6.44
     1.406788          2.91
     1.405153          4.28
     1.404461          2.23
     1.403620          0.11
     1.402068          2.96
     1.400942          0.15
     1.397189          0.41
     1.396497          0.21
     1.396469         41.95
     1.396111          1.48
     1.396039          0.23
     1.393321          1.73
     1.389480          3.64
     1.386348          0.85
     1.384941          2.38
     1.381511          1.68
     1.378708          2.45
     1.377606         11.40
     1.377138          2.79
     1.375009          1.06
     1.373632          5.74
     1.373525          3.19
     1.372331          1.33
     1.369940         22.97
     1.365656          1.81
     1.364371          2.98
     1.362577          0.00
     1.360917          0.73
     1.360357          0.55
     1.359497          2.64
     1.358801          2.96
     1.358735         27.81
     1.358565          8.88
     1.357475          0.10
     1.355780         12.93
     1.355524          0.73
     1.351985          0.41
     1.349726          0.40
     1.347384          0.42
     1.345664          0.22
     1.344999          4.16
     1.342727          3.46
     1.339210          0.59
     1.338967          0.35
     1.338381          5.36
     1.336586          1.66
     1.336492         12.62
     1.335119         13.07
     1.333181         14.79
     1.331750          0.32
     1.331588          7.06
     1.329595          1.00
     1.329110          3.95
     1.327176          2.26
     1.324511          0.00
     1.324375          1.24
     1.323370          0.06
     1.323182         17.19
     1.323053          3.94
     1.321406          1.19
     1.319425          1.40
     1.317690         11.90
     1.315908         19.39
     1.314566          8.62
     1.312747          2.60
     1.309249          1.92
     1.306658          1.83
     1.305927          1.48
     1.304853         15.86
     1.302804          0.24
     1.302153          2.48
     1.301361          5.43
     1.301345          0.73
     1.300051          5.22
     1.299514          0.69
     1.299004         10.47
     1.296498          3.78
     1.296067          5.44
     1.293974          2.74
     1.293644          0.06
     1.291384          0.08
     1.290709          2.53
     1.290468         17.26
     1.290194          4.66
     1.289413          7.89
     1.288899          0.15
     1.288740          4.88
     1.288685          0.38
     1.287242          8.18
     1.283930         10.80
     1.282687          3.88
     1.281999          1.10
     1.281508          1.89
     1.279702          7.03
     1.279265          3.84
     1.277165          8.56
     1.276213          1.70
     1.274806          5.63
     1.274311          0.05
     1.271575          1.60
     1.270205          0.78
     1.266590          4.62
     1.265403          1.13
     1.264066          7.24
     1.263905          0.92
     1.263811          0.01
     1.260571         10.80
     1.259488          9.41
     1.258522          2.62
     1.258434          0.57
     1.251683          6.28
     1.250851          4.00
     1.248567          0.10
     1.247619          0.14
     1.244483          8.50
     1.244244          0.98
     1.242569          1.99
     1.241004         21.08
     1.240151          5.66
     1.238835          2.48
     1.238333          1.52
     1.234592          2.27
     1.232020          8.49
     1.229837         11.79
     1.228578          7.41
     1.228486          0.20
     1.226574          3.40
     1.224807          1.87
     1.224446          0.57
     1.222582          4.16
     1.222067         14.56
     1.221066          1.16
     1.220317          1.17
     1.220179          0.01
     1.219940          2.72
     1.218868          0.00
     1.217862          1.91
     1.217775         13.29
     1.217656          2.36
     1.215953          4.56
     1.215870          1.93
     1.215775          1.84
     1.215544          0.02
     1.213998          1.85
     1.211990          5.59
     1.210878          0.63
     1.209571          2.40
     1.208184          2.77
     1.207818          2.08
     1.207506          0.69
     1.207331          0.00
     1.207252          0.66
     1.204807          0.08
     1.202323          1.61
     1.201627         12.69
     1.201618          1.72
     1.201222          0.92
     1.199784          0.49
     1.198715          4.52
     1.195388          0.43
     1.195329          0.27
     1.193016          1.29
     1.191442          0.29
     1.191152          8.84
     1.190557          0.09
     1.190329          0.59
     1.190107          0.07
     1.189204          0.17
     1.188307          0.74
     1.188257          2.17
     1.188222          0.26
     1.187614          0.00
     1.186906          1.56
     1.186437          5.81
     1.185536          0.63
     1.185134         11.11
     1.185130          0.01
     1.184685          0.45
     1.184363          0.00
     1.184294          0.50
     1.183707          2.57
     1.183229          0.97
     1.182877          0.14
     1.181402          0.43
     1.179589          1.11
     1.179556          0.01
     1.178945          0.35
     1.178377          0.02
     1.177992          0.07
     1.177742          2.32
     1.177070          0.12
     1.174466          1.07
     1.173104          2.95
     1.172119          3.55
     1.172081          1.53
     1.171232          1.29
     1.168466          0.15
     1.167231          0.68
     1.167221          0.86
     1.165709          5.55
     1.165005          0.01
     1.164357          0.07
     1.164018          3.95
     1.164014          7.92
     1.161981          0.71
     1.161279          3.04
     1.160405          3.78
     1.159279          3.52
     1.157814          8.23
     1.156766          0.83
     1.156604          4.20
     1.156598          4.34
     1.156283          2.68
     1.155935         11.29
     1.155773          1.58
     1.155295          2.70
     1.153939          2.74
     1.153026          5.43
     1.152561          0.20
     1.152423          0.04
     1.151293          3.37
     1.151031          2.43
     1.151026          0.14
     1.150463         10.39
     1.150247          3.67
##############################################################################
###                            Comments                                    ###
##############################################################################
###   Diffraction pattern calculated by Match!. 
###   I/Ic calculated by Match!. 
###   Space group has been derived from given symmetry operations. 
##############################################################################


