##############################################################################
###               Crystal structure data exported by Match!                ###
##############################################################################
###                           Data published by:                           ###
###                                                                        ###
###               COD (Crystallography Open Database)
##############################################################################
data_9009344
_citation_journal_full    'Neues Jahrbuch fur Mineralogie, Monatshefte'
_citation_journal_volume  '1988'
_citation_page_first  '159'
_citation_page_last   '166'
_citation_year  '1988'
_citation_title  'The crystal structure of austinite, CaZn(AsO4)(OH), from Kamareza, Laurion (Greece) Locality: Kamareza, Laurion, Greece'
loop_
_publ_author_name
  'Giuseppetti G.'
  'Tadini C.'
_chemical_formula_sum  'As Ca H O5 Zn'
_chemical_name_mineral  'Austinite'
_symmetry_space_group_name_H-M 'P 21 21 21'
_space_group_IT_number 19
_space_group_crystal_system 'orthorhombic'
loop_
_symmetry_equiv_pos_as_xyz
   'x, y, z'
   '-x+0.5, -y, z+0.5'
   'x+0.5, -y+0.5, -z'
   '-x, y+0.5, -z+0.5'
_cell_length_a        7.50500
_cell_length_b        9.03700
_cell_length_c        5.92100
_cell_angle_alpha    90.0000
_cell_angle_beta     90.0000
_cell_angle_gamma    90.0000
loop_
_atom_site_label
_atom_site_fract_x
_atom_site_fract_y
_atom_site_fract_z
_atom_site_occupancy
_atom_site_B_iso_or_equiv
ca      0.369   0.672   0.522    1.00000    8.798
zn      0.764   0.506   0.757    1.00000    6.839
as      0.377   0.323   0.483    1.00000    4.610
o      0.552   0.441   0.510    1.00000    2.709
o      0.208   0.437   0.411    1.00000    15.493
o      0.648   0.733   0.769    1.00000    4.850
o      0.603   0.709   0.242    1.00000    51.011
o      0.890   0.573   0.492    1.00000    4.769
h      0.993   0.523   0.500    1.00000    11.999
_cell_measurement_wavelength    1.541874
_cell_measurement_radiation   'x-rays'
_exptl_crystal_density_diffrn    4.323000
loop_
_pd_peak_d_spacing
_pd_peak_intensity
     5.773609        456.93
     4.952634        381.36
     4.648496          0.64
     4.518500         10.24
     4.133684        417.63
     3.871050        179.01
     3.752500        249.22
     3.592033         46.11
     3.465602        174.67
     3.240045        162.96
     3.169570       1000.00
     2.990942         18.20
     2.960500        128.70
     2.886805        162.56
     2.813380         16.35
     2.795552        960.13
     2.753975          1.25
     2.684846          0.82
     2.634365        690.87
     2.594826        381.68
     2.527953        383.85
     2.476317        227.17
     2.410992        117.01
     2.351613        116.42
     2.349078         89.42
     2.324248        166.06
     2.304424          0.02
     2.259250         21.41
     2.250991         13.97
     2.232968         12.75
     2.188618          3.10
     2.183513         14.11
     2.163353          0.01
     2.111477          0.01
     2.110810          0.36
     2.066842        156.63
     2.052864         42.59
     2.032566         12.20
     2.031972         11.66
     1.935525         45.64
     1.928216         13.98
     1.924536          7.35
     1.910811          0.54
     1.908766          0.27
     1.876250         23.94
     1.869477         56.15
     1.867562         58.35
     1.840166         10.20
     1.839725         26.06
     1.837074          0.27
     1.830281        118.89
     1.808656          4.43
     1.796017         91.87
     1.788598          0.35
     1.759915          7.47
     1.758317         21.51
     1.757163          0.18
     1.754563         29.81
     1.746789         75.19
     1.746697          3.77
     1.732801        116.07
     1.728656          2.38
     1.715044          4.32
     1.684548         45.87
     1.676702          5.47
     1.663047          0.67
     1.650878          0.31
     1.629280         28.08
     1.628362         10.22
     1.620022         44.02
     1.613563        184.80
     1.613265         19.43
     1.612331         42.95
     1.592590          0.25
     1.584785        102.07
     1.570069          0.11
     1.560965          0.30
     1.549499          0.05
     1.542637          0.61
     1.537929         11.06
     1.527212          6.33
     1.511106          0.48
     1.511047         96.31
     1.506167         23.13
     1.495471          0.24
     1.486371          4.62
     1.480714         26.35
     1.480250         53.02
     1.476722          2.80
     1.465712         12.11
     1.465043         38.26
     1.460783          0.00
     1.459681          1.76
     1.458961         11.69
     1.458051          6.32
     1.454976          0.92
     1.452272          2.52
     1.443402         14.79
     1.436477          3.17
     1.433874         12.66
     1.432831          2.64
     1.426779         19.21
     1.424462          5.45
     1.422156         16.99
     1.406690          0.06
     1.402531          4.47
     1.402335          2.75
     1.397776          6.87
     1.384946          8.83
     1.382613          9.30
     1.381911          4.93
     1.377895         23.00
     1.376988          2.78
     1.361276          9.43
     1.360383         30.82
     1.359844          0.20
     1.344706          6.05
     1.343456          0.28
     1.342423          1.60
     1.338761          0.03
     1.332936          1.93
     1.328516          1.35
     1.324308          0.78
     1.321450          4.37
     1.317182          7.27
     1.313061          1.26
     1.312397          8.04
     1.310154         16.14
     1.308178         39.03
     1.302154          2.71
     1.301685          0.85
     1.297413          0.17
     1.290350          0.07
     1.283606          6.49
     1.277837          5.83
     1.273942          0.15
     1.272313          0.65
     1.271325          6.63
     1.263976          3.28
     1.261469          9.72
     1.261365          5.68
     1.260759          1.81
     1.256048          0.81
     1.252347          4.00
     1.250833          1.29
     1.250226          1.51
     1.243919          0.06
     1.239409          1.85
     1.239021          4.43
     1.238159          0.95
     1.226141          2.21
     1.223823         15.62
     1.223383         21.97
     1.223254          1.41
     1.221645          0.48
     1.220774          2.00
     1.212753          1.56
     1.205496          2.87
     1.197344          0.07
     1.195626          0.59
     1.194744          1.04
     1.191590          0.78
     1.184438          2.14
     1.183377          0.00
     1.182877          0.63
     1.182391          0.64
     1.181262          2.44
     1.176371          4.86
     1.175806          5.59
     1.174539          0.92
     1.174162          2.38
     1.173330          1.00
     1.169728          0.12
     1.168935          5.14
     1.165079          0.69
     1.162124          2.51
     1.160051          2.43
     1.155201          0.09
     1.155049          2.59
     1.154722          4.51
     1.152632          0.59
     1.152212          0.18
     1.152090          0.08
     1.151737          1.44
     1.147243          3.67
     1.145513          1.13
     1.145194          0.04
     1.142959          3.11
     1.140684          9.34
     1.133823          0.25
     1.133370          3.86
     1.132399          1.14
     1.132090          0.53
     1.129625          1.01
     1.129302          4.52
     1.128588          5.27
     1.126296          1.23
     1.125495         11.07
     1.120586          0.17
     1.117042          0.38
     1.116484          2.01
     1.110583          4.75
     1.109682          1.41
     1.109612          0.08
     1.102098          0.09
     1.097679          0.26
     1.095602          3.14
     1.095323          2.40
     1.094309          0.38
     1.091756         15.39
     1.090404          2.32
     1.086635          2.68
     1.084236          0.36
     1.081677          1.47
     1.080396          2.33
     1.080015          0.16
     1.076173          0.02
     1.076085          0.65
     1.075786          0.19
     1.070339          0.24
     1.069731          0.38
     1.069372          0.69
     1.064676          0.00
     1.064066          4.93
     1.063553          0.02
     1.063189          0.19
     1.062909          1.07
     1.057435          1.22
     1.056523          4.56
     1.056157          0.47
     1.055738          3.36
     1.055405          8.70
     1.054987          0.34
     1.053954          0.03
     1.049376          0.22
     1.048852          1.03
     1.047871          0.25
     1.046859          4.69
     1.046799          3.01
     1.046453          0.83
     1.045445          0.99
     1.045122          0.30
     1.043179          0.14
     1.041517          0.82
     1.041277          6.04
     1.038757          1.03
     1.038221          0.16
     1.033421          2.21
     1.029532          0.23
     1.028775          0.88
     1.028544          0.17
     1.027356          2.49
     1.026432          0.86
     1.026402          1.69
     1.016283          1.32
     1.015986          0.39
     1.014313          0.18
     1.013368          0.49
     1.010136          0.36
     1.010073          2.75
     1.009332          0.14
     1.008564          1.81
     1.008073          0.01
##############################################################################
###                            Comments                                    ###
##############################################################################
###   Diffraction pattern calculated by Match!. 
###   I/Ic calculated by Match!. 
##############################################################################


