##############################################################################
###               Crystal structure data exported by Match!                ###
##############################################################################
###                           Data published by:                           ###
###                                                                        ###
###               COD (Crystallography Open Database)
##############################################################################
data_9004190
_citation_journal_full    'The Canadian Mineralogist'
_citation_journal_volume  '25'
_citation_page_first  '401'
_citation_page_last   '407'
_citation_year  '1987'
_citation_title  'La nickelaustinite Ca(Ni,Zn)(AsO4)(OH): Nouvelle espece minerale du district cobalto-nickelifere de Bou-Azzer, Maroc Note: signs changed on y-coordinates of O1 and O2'
loop_
_publ_author_name
  'Cesbron F. P.'
  'Ginderow D.'
  'Giraud R.'
  'Pelisson P.'
  'Pillard F.'
_chemical_formula_sum  'As Ca Co0.04 Cu0.01 H Mg0.06 Ni0.67 O5 Zn0.22'
_chemical_name_mineral  'Nickelaustinite'
_symmetry_space_group_name_H-M 'P 21 21 21'
_space_group_IT_number 19
_space_group_crystal_system 'orthorhombic'
loop_
_symmetry_equiv_pos_as_xyz
   'x, y, z'
   '-x+0.5, -y, z+0.5'
   'x+0.5, -y+0.5, -z'
   '-x, y+0.5, -z+0.5'
_cell_length_a        7.45500
_cell_length_b        8.95500
_cell_length_c        5.91600
_cell_angle_alpha    90.0000
_cell_angle_beta     90.0000
_cell_angle_gamma    90.0000
loop_
_atom_site_label
_atom_site_fract_x
_atom_site_fract_y
_atom_site_fract_z
_atom_site_occupancy
_atom_site_B_iso_or_equiv
ca      0.369   0.170   0.476    1.00000    0.799
ni      0.240   0.505   0.256    0.67000    0.799
zn      0.240   0.505   0.256    0.22000    0.799
co      0.240   0.505   0.256    0.04000    0.799
mg      0.240   0.505   0.256    0.05990    0.799
cu      0.240   0.505   0.256    0.01000    0.799
as      0.118   0.181   0.017    1.00000    0.598
o      -0.055   0.063   -0.011    1.00000    1.098
o      0.284   0.067   0.084    1.00000    1.098
o      0.146   0.275   -0.232    1.00000    0.799
o      0.102   0.296   0.243    1.00000    0.900
o      0.398   0.425   0.497    1.00000    0.700
h      0.475   0.971   0.010    1.00000    0.700
_cell_measurement_wavelength    1.541874
_cell_measurement_radiation   'x-rays'
_exptl_crystal_density_diffrn    4.274000
loop_
_pd_peak_d_spacing
_pd_peak_intensity
     5.729449        290.81
     4.936104        336.94
     4.634139          5.32
     4.477500          1.80
     4.115703        357.33
     3.838402         99.28
     3.727500        167.36
     3.570234         26.81
     3.441281        224.09
     3.220023        113.35
     3.153705       1000.00
     2.974630         19.96
     2.958000        115.22
     2.864724        205.40
     2.808735         15.72
     2.771118        812.95
     2.749476          4.26
     2.664982          3.02
     2.628378        808.16
     2.578342        480.92
     2.509461        469.76
     2.468052        206.98
     2.394514        106.16
     2.342993        147.11
     2.329978        154.68
     2.317069        169.36
     2.291087          0.11
     2.243196         16.06
     2.238750         28.84
     2.219595         29.22
     2.172796          0.99
     2.167902          3.93
     2.144155          2.46
     2.101103          0.40
     2.093841          0.64
     2.057852        191.45
     2.039585         25.50
     2.022318         31.82
     2.015841          2.35
     1.925857         11.22
     1.919201         60.34
     1.909816          5.89
     1.906430          1.00
     1.902688          0.01
     1.864643         74.03
     1.863750         44.45
     1.861142         69.90
     1.830349         14.00
     1.825543         27.98
     1.824651          2.47
     1.817460        167.20
     1.804719         20.42
     1.785117        150.16
     1.777624          1.08
     1.754054         13.68
     1.751138          3.84
     1.743603         24.53
     1.743097        132.98
     1.741450          2.69
     1.736041         13.96
     1.720640        255.47
     1.714170          0.02
     1.710985          3.97
     1.670576         88.58
     1.663301          2.59
     1.652179          0.30
     1.645368          2.15
     1.624348         60.93
     1.614324          4.84
     1.610011         82.40
     1.606701        101.98
     1.604459        432.88
     1.601218         35.75
     1.580903          0.89
     1.576853        184.42
     1.557383          2.10
     1.552961          2.80
     1.544713          0.59
     1.532056          0.31
     1.527311         28.49
     1.522232         10.08
     1.505245          0.31
     1.500694        253.31
     1.492500         52.88
     1.487315          2.21
     1.479784         10.80
     1.479000        132.82
     1.470753         52.96
     1.463460          2.79
     1.460255         17.62
     1.459232          0.01
     1.452959         94.18
     1.451466          7.67
     1.450726          4.52
     1.449812         17.14
     1.447157          1.63
     1.445790          0.02
     1.432362         31.99
     1.432056         37.93
     1.427307         14.12
     1.420638          9.67
     1.417032         16.70
     1.414629          9.75
     1.411026         44.60
     1.404368          0.75
     1.394267          4.93
     1.392139          4.40
     1.385559         14.38
     1.380094         10.39
     1.375842          7.49
     1.375367         11.18
     1.374738          6.30
     1.371901         56.02
     1.358819         24.13
     1.354523          0.01
     1.349054         90.33
     1.339289          6.55
     1.333859          0.20
     1.332491          2.27
     1.331423          0.12
     1.325811          1.27
     1.325247          0.91
     1.316947          6.13
     1.314189         31.16
     1.311703         21.20
     1.305329         32.07
     1.304791        118.81
     1.304126         11.37
     1.301196         52.30
     1.296496          8.77
     1.291381          1.59
     1.289171          2.42
     1.279467          0.03
     1.276196         21.09
     1.271429         12.00
     1.270932          0.02
     1.261673          5.12
     1.260856          5.47
     1.258322         44.24
     1.254730         19.65
     1.250555          5.42
     1.250385          8.31
     1.249148          3.11
     1.248676         15.64
     1.242500         11.32
     1.240971          0.76
     1.234026          6.23
     1.233469          7.40
     1.233160          0.30
     1.230710         10.26
     1.222632          3.51
     1.217459          1.09
     1.215971         58.17
     1.215950         98.26
     1.214538          1.36
     1.210007          4.60
     1.204914          6.94
     1.197257          9.47
     1.190078          0.32
     1.189317          2.03
     1.185465          0.95
     1.183511          2.57
     1.178965          8.91
     1.175198          3.83
     1.174320          4.66
     1.174180          0.32
     1.173468         13.86
     1.173005          4.56
     1.171496         32.18
     1.169740         24.01
     1.169352          1.59
     1.168574          0.40
     1.164989          4.09
     1.159881         15.20
     1.158911          8.45
     1.158749         12.87
     1.158535         13.42
     1.149459          3.70
     1.148959          0.56
     1.147094          0.72
     1.145890         23.76
     1.145543          2.04
     1.144344          7.20
     1.143933          6.44
     1.143038          0.40
     1.140416          0.00
     1.137414         21.97
     1.136284          3.30
     1.133699         41.19
     1.130699          1.28
     1.127748         27.58
     1.127302          3.24
     1.126120          2.27
     1.124981         22.03
     1.121598         73.62
     1.119929          8.87
     1.119375          6.43
     1.118910          0.55
     1.116957          5.12
     1.109797         15.67
     1.106966          0.16
     1.105250          0.59
     1.104850         29.73
     1.099941          2.31
     1.099860          0.64
     1.093594         16.93
     1.090519          2.98
     1.088160         15.45
     1.088082          0.45
     1.086398          4.71
     1.083951         95.44
     1.080346          2.46
     1.080040          1.61
     1.073341          3.33
     1.073234          4.56
     1.072078          8.10
     1.069492          0.05
     1.068530          4.34
     1.068516          0.19
     1.068287          0.13
     1.062282          4.77
     1.061634          9.00
     1.060765         11.81
     1.057547          0.79
     1.054967          1.24
     1.054896         35.73
     1.054826          1.35
     1.054724          1.23
     1.051235         24.77
     1.050551         31.95
     1.050308          0.86
     1.050028          0.20
     1.048152          1.81
     1.046921         54.32
     1.046088          4.66
     1.044066          2.35
     1.042883         35.09
     1.041045          5.08
     1.040273          1.95
     1.039120          4.45
     1.038449          2.56
     1.038351          7.82
     1.036748          2.33
     1.036481         45.87
     1.036094          0.01
     1.035939          3.52
     1.031336          0.54
     1.028926         18.16
     1.023407         10.12
     1.022293          4.68
     1.020886          0.05
     1.020609          0.07
     1.020561          9.42
     1.019793         10.78
     1.011159         13.91
     1.007920          8.14
     1.007177          2.00
##############################################################################
###                            Comments                                    ###
##############################################################################
###   Diffraction pattern calculated by Match!. 
###   I/Ic calculated by Match!. 
##############################################################################


