##############################################################################
###               Crystal structure data exported by Match!                ###
##############################################################################
###                           Data published by:                           ###
###                                                                        ###
###               COD (Crystallography Open Database)
##############################################################################
data_9003331
_citation_journal_full    'American Mineralogist'
_citation_journal_volume  '89'
_citation_page_first  '359'
_citation_page_last   '364'
_citation_year  '2004'
_citation_title  'Sodalite: High-temperature structures obtained from synchrotron radiationand Rietveld refinementsSample: T = 982 C'
loop_
_publ_author_name
  'Hassan I.'
  'Antao S. M.'
  'Parise J. B.'
_chemical_formula_sum  'Al3 Cl Na4 O12 Si3'
_chemical_name_mineral  'Sodalite'
_symmetry_space_group_name_H-M 'P -4 3 n'
_space_group_IT_number 218
_space_group_crystal_system 'cubic'
loop_
_symmetry_equiv_pos_as_xyz
   'x, y, z'
   'y+0.5, -x+0.5, -z+0.5'
   '-x, -y, z'
   '-y+0.5, x+0.5, -z+0.5'
   '-x+0.5, z+0.5, -y+0.5'
   'x, -y, -z'
   '-x+0.5, -z+0.5, y+0.5'
   '-z+0.5, -y+0.5, x+0.5'
   '-x, y, -z'
   'z+0.5, -y+0.5, -x+0.5'
   'z, x, y'
   'y, z, x'
   '-y, -z, x'
   'z, -x, -y'
   '-y, z, -x'
   '-z, -x, y'
   '-z, x, -y'
   'y, -z, -x'
   '-y+0.5, -x+0.5, z+0.5'
   'y+0.5, x+0.5, z+0.5'
   'x+0.5, -z+0.5, -y+0.5'
   'x+0.5, z+0.5, y+0.5'
   '-z+0.5, y+0.5, -x+0.5'
   'z+0.5, y+0.5, x+0.5'
_cell_length_a        9.02748
_cell_length_b        9.02748
_cell_length_c        9.02748
_cell_angle_alpha    90.0000
_cell_angle_beta     90.0000
_cell_angle_gamma    90.0000
loop_
_atom_site_label
_atom_site_fract_x
_atom_site_fract_y
_atom_site_fract_z
_atom_site_occupancy
_atom_site_B_iso_or_equiv
na      0.187   0.187   0.187    1.00000    7.042
al      0.250   0.000   0.500    1.00000    1.294
si      0.250   0.500   0.000    1.00000    1.294
o      0.145   0.155   0.453    1.00000    2.637
cl      0.000   0.000   0.000    1.00000    13.556
_cell_measurement_wavelength    1.541874
_cell_measurement_radiation   'x-rays'
_cell_measurement_temperature    1255.100000
_exptl_crystal_density_diffrn    2.188000
loop_
_pd_peak_d_spacing
_pd_peak_intensity
     6.383392        462.77
     4.513740         42.10
     4.037212         11.49
     3.685453       1000.00
     3.191696          4.42
     2.854740        104.29
     2.606009        198.81
     2.503772          0.29
     2.412696        110.83
     2.256870         38.68
     2.189486          0.28
     2.127797        249.23
     2.018606         15.39
     1.969958          0.09
     1.924665         25.92
     1.842727         14.60
     1.805496          0.06
     1.770435         69.13
     1.676361          1.31
     1.648185         31.54
     1.595848         58.88
     1.548200         45.21
     1.525923          0.75
     1.504580         63.42
     1.484109          0.11
     1.464451         45.64
     1.427370          6.00
     1.409856          0.39
     1.392970         14.89
     1.360944         52.07
     1.345737          0.21
     1.331029         23.70
     1.303005         25.30
     1.289640          0.02
     1.276678         14.59
     1.251886          3.86
     1.240020          0.32
     1.228484         52.51
     1.206348         14.65
     1.185366         14.10
     1.175278          0.12
     1.155850          0.26
     1.146491         11.46
     1.128435          4.53
     1.119721          0.15
     1.111206         12.68
     1.094743          7.77
     1.086781          0.14
     1.078990          4.09
     1.063899          6.41
     1.056587          0.01
     1.049423          6.31
     1.042404          0.11
     1.035523         17.11
     1.028777          0.52
     1.022161          5.69
     1.009303         21.38
##############################################################################
###                            Comments                                    ###
##############################################################################
###   Diffraction pattern calculated by Match!. 
###   I/Ic calculated by Match!. 
###   Space group has been derived from given symmetry operations. 
##############################################################################


