##############################################################################
###               Crystal structure data exported by Match!                ###
##############################################################################
###                           Data published by:                           ###
###                                                                        ###
###               COD (Crystallography Open Database)
##############################################################################
data_1530026
_citation_journal_full    'Materials Research Bulletin'
_citation_journal_volume  '23'
_citation_page_first  '743'
_citation_page_last   '753'
_citation_year  '1988'
_citation_title  'Ti O2-II. Ambient pressure and structure refinement'
loop_
_publ_author_name
  'Grey I.E.'
  'Braunshausen G.'
  'Li C.'
  'Madsen I.C.'
_chemical_formula_sum  'O2 Ti'
_chemical_name_common  'Titanium(IV) oxide'
_symmetry_space_group_name_H-M 'P b c n'
_space_group_IT_number 60
_space_group_crystal_system 'orthorhombic'
loop_
_symmetry_equiv_pos_as_xyz
   'x, y, z'
   '-x+0.5, -y+0.5, z+0.5'
   'x+0.5, -y+0.5, -z'
   '-x, y, -z+0.5'
   '-x, -y, -z'
   'x+0.5, y+0.5, -z+0.5'
   '-x+0.5, y+0.5, z'
   'x, -y, z+0.5'
_cell_length_a        4.53180
_cell_length_b        5.50190
_cell_length_c        4.90630
_cell_angle_alpha    90.0000
_cell_angle_beta     90.0000
_cell_angle_gamma    90.0000
_cell_formula_units_Z 4
loop_
_atom_site_label
_atom_site_fract_x
_atom_site_fract_y
_atom_site_fract_z
_atom_site_occupancy
_atom_site_B_iso_or_equiv
ti      0.000   0.170   0.250    1.00000    1.000
o      0.272   0.381   0.414    1.00000    1.000
_cell_measurement_wavelength    1.541874
_cell_measurement_radiation   'x-rays'
_exptl_crystal_density_diffrn    4.337000
loop_
_pd_peak_d_spacing
_pd_peak_intensity
     3.497976        387.61
     2.848211       1000.00
     2.750950         73.68
     2.453150         99.22
     2.399507         97.36
     2.265900         19.77
     2.157349        100.03
     2.120593        175.88
     2.008466         90.00
     1.926836          3.98
     1.830907         50.57
     1.748988         46.13
     1.700033        131.02
     1.697595          0.45
     1.664499        179.68
     1.647442        275.28
     1.606336          2.04
     1.593187          2.05
     1.481508        117.21
     1.456692          5.97
     1.424105         30.69
     1.405774        108.68
     1.397301         99.87
     1.396443         96.09
     1.375475         23.80
     1.368931          1.04
     1.342658          0.06
     1.324413         38.12
     1.289185          0.00
     1.286288          7.56
     1.278367         13.82
     1.271237          0.40
     1.252514         20.33
     1.232547          0.40
     1.226575          7.30
     1.199753          0.72
     1.194554          5.52
     1.183974          5.23
     1.178602          0.01
     1.175796          0.24
     1.165992         18.39
     1.165205          0.06
     1.159798         10.34
     1.157477          9.66
     1.143420         34.18
     1.134398          0.01
     1.132950         23.32
     1.120264          6.70
     1.087763         20.62
     1.087528          0.05
     1.082330          0.93
     1.078675         30.25
     1.074607          0.00
     1.069309          5.22
     1.060297         14.84
     1.058523          0.25
     1.053090         38.35
     1.052665         11.68
     1.047586          4.29
     1.044783         20.47
     1.029097          0.02
     1.028557         10.04
     1.025366          0.00
     1.024493         12.04
     1.011041          0.90
##############################################################################
###                            Comments                                    ###
##############################################################################
###   Diffraction pattern calculated by Match!. 
###   I/Ic calculated by Match!. 
###   Space group has been derived from given symmetry operations. 
##############################################################################


