##############################################################################
###               Crystal structure data exported by Match!                ###
##############################################################################
###                           Data published by:                           ###
###                                                                        ###
###               COD (Crystallography Open Database)
##############################################################################
data_9011395
_citation_journal_full    'Acta Crystallographica, Section E'
_citation_journal_volume  '63'
_citation_page_first  'i53'
_citation_page_last   'i55'
_citation_year  '2007'
_citation_title  'Cobaltaustinite, CaCo(AsO4)(OH) Locality: Dome Rock, Mingary, South Australia, Australia'
loop_
_publ_author_name
  'Yang H.'
  'Costin G.'
  'Keogh J.'
  'Lu R.'
  'Downs R. T.'
_chemical_formula_sum  'As Ca Co0.95 Cu0.05 H O5'
_chemical_name_mineral  'Cobaltaustinite'
_symmetry_space_group_name_H-M 'P 21 21 21'
_space_group_IT_number 19
_space_group_crystal_system 'orthorhombic'
loop_
_symmetry_equiv_pos_as_xyz
   'x, y, z'
   '-x+0.5, -y, z+0.5'
   'x+0.5, -y+0.5, -z'
   '-x, y+0.5, -z+0.5'
_cell_length_a        7.49190
_cell_length_b        8.99460
_cell_length_c        5.91580
_cell_angle_alpha    90.0000
_cell_angle_beta     90.0000
_cell_angle_gamma    90.0000
loop_
_atom_site_label
_atom_site_fract_x
_atom_site_fract_y
_atom_site_fract_z
_atom_site_occupancy
_atom_site_B_iso_or_equiv
ca      0.629   0.329   0.522    1.00000    1.310
co      0.258   0.505   0.255    0.94990    1.144
cu      0.258   0.505   0.255    0.05000    1.144
as      0.620   0.679   0.484    1.00000    1.129
o      0.443   0.561   0.509    1.00000    1.658
o      0.713   0.436   0.912    1.00000    1.949
o      0.352   0.270   0.767    1.00000    1.429
o      0.398   0.294   0.240    1.00000    1.760
o      0.396   0.574   0.994    1.00000    1.721
h      0.504   0.506   0.990    1.00000    4.737
_cell_measurement_wavelength    1.541874
_cell_measurement_radiation   'x-rays'
_exptl_crystal_density_diffrn    4.251000
loop_
_pd_peak_d_spacing
_pd_peak_intensity
     5.756570        264.21
     4.942589        330.24
     4.642865          3.59
     4.497300          1.42
     4.125654        362.99
     3.855912         99.68
     3.745950        173.77
     3.580204         22.73
     3.458046        218.00
     3.230307        124.59
     3.164825       1000.00
     2.985413         15.92
     2.957900        115.39
     2.878285        190.74
     2.809864         15.57
     2.783574        816.73
     2.751235          5.39
     2.674345          0.93
     2.630912        758.42
     2.588198        465.17
     2.518685        464.93
     2.471295        190.66
     2.406276        104.41
     2.346908        133.34
     2.340762        141.22
     2.321433        156.14
     2.300704          0.51
     2.248650         26.91
     2.247776         14.16
     2.228942         29.09
     2.183280          0.02
     2.176570          1.72
     2.153731          1.86
     2.105655          0.50
     2.101925          1.34
     2.062827        178.26
     2.048242         20.83
     2.027112         32.80
     2.023784          2.52
     1.927956         57.86
     1.926186          9.69
     1.918857          7.49
     1.908165          0.01
     1.906983          0.92
     1.872975         45.52
     1.866623         62.32
     1.865516         70.53
     1.835539          8.79
     1.833642          0.75
     1.833067         32.69
     1.825240        170.73
     1.805957         17.29
     1.790102        147.40
     1.785618          0.53
     1.756591          6.00
     1.755669         12.93
     1.751438         22.41
     1.749201          1.75
     1.744927        124.87
     1.741091         10.68
     1.729023        232.65
     1.721105          0.03
     1.712990          2.62
     1.677411         77.45
     1.671049          3.57
     1.659592          0.06
     1.647530          1.04
     1.626771         54.50
     1.621622          6.09
     1.615154         73.47
     1.609792        394.31
     1.609082         94.10
     1.608124         27.31
     1.588494          0.42
     1.582412        176.58
     1.563929          1.44
     1.558478          1.19
     1.547622          0.32
     1.536990          0.13
     1.534149         20.52
     1.525209         10.07
     1.508111          0.71
     1.505632        220.50
     1.499100         49.88
     1.492706          2.10
     1.482604          9.33
     1.478950        117.30
     1.478012         51.57
     1.469961          1.57
     1.463398         14.89
     1.459646         79.17
     1.459354          0.09
     1.454923         15.00
     1.454399          7.60
     1.453169          1.30
     1.452513          0.09
     1.450949          3.05
     1.439143         31.54
     1.433936         14.13
     1.432431         30.64
     1.426581          6.96
     1.421950         20.45
     1.421556          7.93
     1.417146         39.64
     1.404932          0.80
     1.399456          3.71
     1.398359          3.44
     1.391787         12.77
     1.382210          6.98
     1.380862          9.08
     1.378556         12.03
     1.375617          6.07
     1.375218         52.03
     1.359806         20.56
     1.358030          0.01
     1.354798         86.43
     1.342811          5.77
     1.340321          0.45
     1.337172          3.84
     1.336661          0.04
     1.328993          1.71
     1.326360          0.68
     1.322142          4.78
     1.316370         13.78
     1.315456         25.10
     1.308946          7.76
     1.308564         26.60
     1.307190         44.62
     1.306050        108.88
     1.300052          7.29
     1.297419          1.01
     1.294099          1.35
     1.285304          0.00
     1.281268         15.73
     1.274862          8.85
     1.272536          0.03
     1.267299          5.77
     1.266451          3.85
     1.259989         38.84
     1.259342         15.80
     1.256001          3.46
     1.255664          7.70
     1.252503          2.21
     1.250297         11.22
     1.248650          8.38
     1.246912          0.31
     1.238391          0.63
     1.237048          4.00
     1.236789          8.52
     1.235647          4.54
     1.224462          2.78
     1.221732         50.72
     1.220832         87.68
     1.220104          1.04
     1.219176          0.62
     1.215425          3.14
     1.210615          3.74
     1.203138          9.08
     1.193401          0.23
     1.193038          1.15
     1.190557          0.36
     1.188147          1.37
     1.182680          7.75
     1.179002         12.10
     1.178822          2.91
     1.178543          2.33
     1.173454         26.43
     1.173206         20.27
     1.173055          3.90
     1.171393          1.41
     1.170381          3.63
     1.168676          0.24
     1.164226         15.19
     1.162480          6.31
     1.160716         11.56
     1.158935         10.36
     1.153152          3.79
     1.152682          0.42
     1.151314         21.51
     1.151171          0.26
     1.150352          2.39
     1.148992          4.28
     1.148127          0.53
     1.144225          4.73
     1.142569         19.22
     1.142429          0.00
     1.141058          2.76
     1.137090         37.85
     1.131405          1.46
     1.131109          1.06
     1.130111         16.48
     1.129374          2.49
     1.128221         23.78
     1.124325          4.47
     1.124216          7.84
     1.123888         60.47
     1.121837          4.58
     1.119449          0.28
     1.114471         12.45
     1.111874          0.35
     1.108502         24.61
     1.107494          0.70
     1.104553          0.75
     1.100565          1.45
     1.094312         13.95
     1.092741          0.13
     1.092740          2.31
     1.091640          3.89
     1.088879         13.05
     1.088285         83.80
     1.083862          2.73
     1.082432          1.07
     1.076865          6.26
     1.076769          1.70
     1.076557          3.87
     1.074012          0.01
     1.073516          4.06
     1.072905          0.14
     1.069229          0.10
     1.065817          5.96
     1.065611          3.77
     1.062774          0.73
     1.061753          9.07
     1.059769          0.76
     1.059567          0.61
     1.059455         27.21
     1.055935          0.94
     1.054942         20.62
     1.053893          0.70
     1.053174          1.07
     1.052827         27.11
     1.052578          0.04
     1.050962         43.67
     1.047760          0.91
     1.047065          3.33
     1.046028          4.15
     1.045444         28.99
     1.043163          1.81
     1.042970          5.85
     1.042583          1.17
     1.041194          0.05
     1.040772          1.12
     1.040233          2.93
     1.038883         35.65
     1.036986          2.86
     1.034675          0.29
     1.031414         16.01
     1.027063          8.17
     1.025764          0.00
     1.025432          5.67
     1.025213          0.18
     1.024882          3.14
     1.024121          8.51
     1.013556         10.72
     1.011892          7.12
     1.010683          1.05
     1.010156          0.05
     1.008412          1.81
     1.007974         22.86
     1.007103         10.08
     1.006459          1.33
     1.006415          0.02
##############################################################################
###                            Comments                                    ###
##############################################################################
###   Diffraction pattern calculated by Match!. 
###   I/Ic calculated by Match!. 
##############################################################################


