##############################################################################
###               Crystal structure data exported by Match!                ###
##############################################################################
###                           Data published by:                           ###
###                                                                        ###
###               COD (Crystallography Open Database)
##############################################################################
data_2012672
_citation_journal_full    'Acta Crystallographica Section C'
_citation_journal_volume  '58(5)'
_citation_page_first  'i55'
_citation_page_last   'i60'
_citation_year  '2002'
_citation_title  'Copper(II) hypophosphite: the \a- and \b-forms at 270 and 100K, and the \g-form at 270K'
loop_
_publ_author_name
  'Naumov Dmitry Yu.'
  'Naumova Marina I.'
  'Kuratieva Natalia V.'
  'Boldyreva Elena V.'
  'Howard Judith A. K.'
_chemical_formula_sum  'Cu H4 O4 P2'
_chemical_name_common  'Copper(II) Hypophosphite'
_symmetry_space_group_name_H-M 'P 1 21/c 1'
_space_group_IT_number 14
_space_group_crystal_system 'monoclinic'
loop_
_symmetry_equiv_pos_as_xyz
   'x, y, z'
   '-x, y+0.5, -z+0.5'
   '-x, -y, -z'
   'x, -y+0.5, z+0.5'
_cell_length_a        7.20790
_cell_length_b        5.32160
_cell_length_c        6.21210
_cell_angle_alpha    90.0000
_cell_angle_beta     98.7090
_cell_angle_gamma    90.0000
_cell_formula_units_Z 2
loop_
_atom_site_label
_atom_site_fract_x
_atom_site_fract_y
_atom_site_fract_z
_atom_site_occupancy
_atom_site_B_iso_or_equiv
cu      0.000   0.000   0.000    1.00000    0.609
p      0.264   0.455   0.157    1.00000    0.656
h      0.412   0.477   0.271    1.00000    1.104
h      0.311   0.571   -0.009    1.00000    0.394
o      0.232   0.176   0.109    1.00000    0.740
o      0.107   0.603   0.237    1.00000    0.765
_cell_measurement_wavelength    1.541874
_cell_measurement_radiation   'x-rays'
_cell_measurement_temperature    100.000000
_exptl_crystal_density_diffrn    2.729000
_exptl_crystal_colour            'Blue'
loop_
_pd_peak_d_spacing
_pd_peak_intensity
     7.124794       1000.00
     4.263590         94.64
     4.021522        110.54
     3.661005          7.23
     3.562397         11.06
     3.362332        712.85
     3.070238          4.97
     2.988857        291.68
     2.960323          7.05
     2.808424        157.24
     2.676162         20.70
     2.660800        140.66
     2.659377         37.45
     2.605965          2.20
     2.544317        201.49
     2.522200         56.63
     2.492647         76.30
     2.441443          6.31
     2.390865          1.26
     2.374931         30.34
     2.353464          8.07
     2.279169         57.75
     2.268112         15.71
     2.168941         29.81
     2.168758         39.45
     2.139986         50.93
     2.131795         17.14
     2.072917          0.88
     2.033422          0.00
     2.010761         12.37
     2.008523          3.83
     1.987373         75.47
     1.961560         14.78
     1.959620          5.43
     1.914117         56.97
     1.910388        109.72
     1.899477          3.21
     1.886877          9.82
     1.830503         38.81
     1.792385         12.87
     1.783245         16.60
     1.781198         44.44
     1.771810         42.57
     1.756016          3.63
     1.754352         62.86
     1.721319          2.36
     1.704182          3.51
     1.691911          2.30
     1.689094          0.98
     1.681166         45.18
     1.673416          2.85
     1.666148          0.87
     1.653336          1.99
     1.653170         16.82
     1.641893         55.54
     1.624628          5.54
     1.622346          0.59
     1.615648          6.73
     1.603334         41.30
     1.592459          0.01
     1.587900          4.16
     1.578746          4.96
     1.571906         21.51
     1.563113         55.34
     1.549775          4.29
     1.548194          0.03
     1.542293          0.01
     1.535940          3.60
     1.535119          1.66
     1.525440          0.01
     1.512781         30.17
     1.494429         29.49
     1.487961          7.30
     1.482056          1.81
     1.480162         26.04
     1.478553          0.49
     1.474975          0.02
     1.464648         27.04
     1.455974         21.35
     1.450954         11.75
     1.448434          5.78
     1.438773          1.18
     1.424959          1.26
     1.421430          2.33
     1.421197          8.89
     1.413835          2.40
     1.413007         36.64
     1.405620         30.24
     1.404360          3.22
     1.404212         14.34
     1.399393          5.11
     1.397591          3.55
     1.395368          8.71
     1.388655          7.85
     1.387136          7.13
     1.376467          3.21
     1.374444         32.64
     1.373121          0.26
     1.357831          0.45
     1.343662          1.42
     1.341793          1.94
     1.340507         26.55
     1.339179          2.12
     1.338081         18.11
     1.336721          1.18
     1.330774          0.32
     1.330400          4.22
     1.329689          5.81
     1.307796          4.08
     1.303071         27.48
     1.302982         15.60
     1.300232          4.34
     1.297758          0.03
     1.297687          0.21
     1.294277         16.64
     1.286412          5.99
     1.278205          0.41
     1.277258         23.58
     1.272159          1.43
     1.271925          1.84
     1.270482          1.14
     1.264259          0.00
     1.261100          1.09
     1.258057          1.38
     1.256897          0.06
     1.256165          1.58
     1.247356          4.16
     1.246324          3.06
     1.234231          5.48
     1.231083         12.17
     1.228440          1.36
     1.227114          0.06
     1.223712          0.65
     1.221148         16.79
     1.220721          7.80
     1.220335         12.47
     1.219640         18.14
     1.215519          1.23
     1.215430         13.65
     1.209626         14.84
     1.209388          1.86
     1.208998          5.49
     1.208508          0.50
     1.206305          1.18
     1.199637          0.11
     1.196643          1.74
     1.195432         10.12
     1.192587          0.00
     1.191310          6.13
     1.188520          4.90
     1.187466          0.24
     1.178501          0.13
     1.176732          6.67
     1.170826         21.02
     1.168648          4.20
     1.167093          2.98
     1.160795          0.90
     1.160691          8.25
     1.158963          0.29
     1.156217          4.06
     1.152662          0.31
     1.142900          2.63
     1.141448          0.62
     1.140646          0.09
     1.139584          0.76
     1.138267          0.00
     1.134056          8.83
     1.133590          1.86
     1.133447          0.24
     1.126069         14.63
     1.125537          0.99
     1.125421          1.24
     1.125397          1.21
     1.121928          1.89
     1.120777          3.10
     1.116498          0.48
     1.116215          5.85
     1.115474          1.70
     1.115055          2.28
     1.113290          1.28
     1.111771          2.11
     1.110912          1.98
     1.109368          2.17
     1.108580          0.85
     1.108474          0.77
     1.100333          0.12
     1.094078          0.18
     1.093450          0.47
     1.090478          1.35
     1.088410          2.83
     1.086980         12.29
     1.086471          0.01
     1.084470          0.05
     1.084379          0.68
     1.079212          0.20
     1.071915          1.54
     1.071238         11.20
     1.069993          3.01
     1.068984          4.03
     1.068240          0.54
     1.067371          0.75
     1.066604          3.76
     1.065897          9.26
     1.062630          0.11
     1.060060          5.12
     1.055071          5.99
     1.052640          2.00
     1.048684          4.99
     1.043434          0.30
     1.043324          4.76
     1.042778          1.70
     1.041393          6.06
     1.040310          0.21
     1.036458          1.99
     1.035318          0.04
     1.034927          0.82
     1.034516          3.93
     1.033662          2.33
     1.028605          1.01
     1.027827          0.23
     1.025706          0.26
     1.024740          0.28
     1.023423         10.36
     1.023413          3.55
     1.019780          0.11
     1.018224          0.49
     1.017828          3.05
     1.017484         11.84
     1.016711          7.83
     1.016264          0.27
     1.013123          5.55
     1.013023          0.12
     1.012088          2.43
     1.010846          7.21
     1.010426         14.86
     1.009721          5.15
     1.009620          0.00
     1.009464          1.06
     1.007281          1.21
     1.007168          0.16
##############################################################################
###                            Comments                                    ###
##############################################################################
###   Diffraction pattern calculated by Match!. 
###   I/Ic calculated by Match!. 
##############################################################################


