##############################################################################
###               Crystal structure data exported by Match!                ###
##############################################################################
###                           Data published by:                           ###
###                                                                        ###
###               COD (Crystallography Open Database)
##############################################################################
data_1536059
_citation_journal_full    'Zeitschrift fuer Anorganische und Allgemeine Chemie'
_citation_journal_volume  '414'
_citation_page_first  '69'
_citation_page_last   '75'
_citation_year  '1975'
_citation_title  'Zur Kenntnis der Systeme Li2 O/Co O und Li2 O/Zn O'
loop_
_publ_author_name
  'Jansen M.'
  'Kastner P.'
  'Hoppe R.'
_chemical_formula_sum  'Co19.5 O48'
_chemical_name_common  'Li57 Co19.5 O48'
_symmetry_space_group_name_H-M 'R 3 m'
_space_group_IT_number 160
_space_group_crystal_system 'trigonal (hexagonal axes)'
loop_
_symmetry_equiv_pos_as_xyz
   'x, y, z'
   'x+0.66667, y+0.33333, z+0.33333'
   'x+0.33333, y+0.66667, z+0.66667'
   '-y, x-y, z'
   '-y+0.66667, x-y+0.33333, z+0.33333'
   '-y+0.33333, x-y+0.66667, z+0.66667'
   '-x+y, -x, z'
   '-x+y+0.66667, -x+0.33333, z+0.33333'
   '-x+y+0.33333, -x+0.66667, z+0.66667'
   '-x+y, y, z'
   '-x+y+0.66667, y+0.33333, z+0.33333'
   '-x+y+0.33333, y+0.66667, z+0.66667'
   'x, x-y, z'
   'x+0.66667, x-y+0.33333, z+0.33333'
   'x+0.33333, x-y+0.66667, z+0.66667'
   '-y, -x, z'
   '-y+0.66667, -x+0.33333, z+0.33333'
   '-y+0.33333, -x+0.66667, z+0.66667'
_cell_length_a       13.10000
_cell_length_b       13.10000
_cell_length_c        7.98000
_cell_angle_alpha    90.0000
_cell_angle_beta     90.0000
_cell_angle_gamma   120.0000
_cell_formula_units_Z 1
loop_
_atom_site_label
_atom_site_fract_x
_atom_site_fract_y
_atom_site_fract_z
_atom_site_occupancy
_atom_site_B_iso_or_equiv
o      0.250   0.247   0.036    1.00000    1.000
o      0.000   0.000   -0.003    1.00000    1.000
o      0.746   -0.746   0.002    1.00000    1.000
co      0.254   -0.254   0.757    1.00000    1.000
o      0.245   -0.245   0.022    1.00000    1.000
co      0.000   0.000   0.756    0.50000    1.000
co      0.504   -0.504   0.246    1.00000    1.000
o      0.505   -0.505   0.009    1.00000    1.000
_cell_measurement_wavelength    1.541874
_cell_measurement_radiation   'x-rays'
_exptl_crystal_density_diffrn    2.684000
loop_
_pd_peak_d_spacing
_pd_peak_intensity
     6.550000         90.83
     6.527035        886.75
     4.623409       1000.00
     3.781644        420.43
     3.777209        661.45
     3.763997        375.47
     3.275000        237.15
     3.263518        226.59
     2.927186        202.03
     2.921024          5.34
     2.672457        421.76
     2.660000         98.66
     2.475667        167.27
     2.474422        249.82
     2.470696        180.98
     2.464524        180.23
     2.311704         92.06
     2.183333          0.17
     2.182479         80.75
     2.179921         28.85
     2.175678         82.75
     2.070562        224.07
     2.064753        259.41
     1.974267        142.13
     1.972373         57.50
     1.964852         69.23
     1.890822         38.92
     1.888605         80.29
     1.881998         49.65
     1.816643          9.86
     1.816151         13.95
     1.814676         10.31
     1.812226        159.11
     1.808813          4.12
     1.690806         38.23
     1.689615         46.28
     1.687638         28.06
     1.684880         37.67
     1.637500        382.98
     1.631759        351.99
     1.588279         38.18
     1.587293          6.00
     1.583365          5.14
     1.580438         19.36
     1.543548         62.17
     1.541136         87.74
     1.536347         29.21
     1.502673         35.80
     1.501559         46.16
     1.500171         48.87
     1.498233          8.12
     1.495752         39.53
     1.463593         29.79
     1.460512         40.19
     1.429327          6.48
     1.429087         41.09
     1.425504          6.53
     1.423367          5.25
     1.396241         24.69
     1.394456         32.85
     1.390905         29.25
     1.365560         27.35
     1.364933         27.20
     1.362433         36.05
     1.360567         29.26
     1.336228         17.27
     1.330000         11.03
     1.310000          3.15
     1.309815         20.67
     1.309262          3.15
     1.308341         19.21
     1.307055          1.18
     1.305407          6.66
     1.303401          2.85
     1.284387         28.55
     1.280229         27.18
     1.260548          5.46
     1.260384          7.38
     1.259890         17.39
     1.259070         36.46
     1.257923         28.20
     1.256454         27.98
     1.254666         14.06
     1.237834         14.41
     1.237211         16.78
     1.235348         17.46
     1.232262         10.94
     1.215714          0.10
     1.212626          6.81
     1.176415         18.05
     1.176281         28.11
     1.175213         15.72
     1.174280         14.41
     1.173085          8.68
     1.171629         23.62
     1.155852         72.17
     1.140087          3.92
     1.139722          6.06
     1.139114         19.78
     1.138265          3.36
     1.137176          8.93
     1.135850          0.78
     1.134288          4.37
     1.123199         11.07
     1.122269         41.46
     1.120416         14.44
     1.117653         12.39
     1.107041          8.95
     1.106706          6.78
     1.105372          4.21
     1.101729          5.69
     1.091667          4.80
     1.091239          4.71
     1.089961          8.01
     1.087839          7.37
     1.076813          1.31
     1.076711          3.87
     1.076403          4.75
     1.075891          5.60
     1.075176          0.17
     1.074258         15.21
     1.073139          3.84
     1.071822          8.64
     1.062452         12.99
     1.060095          8.00
     1.057754          3.41
     1.048839          5.15
     1.048460          6.20
     1.046478         12.68
     1.044225          6.91
     1.035281         13.97
     1.032376         24.74
     1.022850          0.24
     1.021534          4.54
     1.020747          5.13
     1.018656          6.20
     1.010602         11.10
     1.009924         12.66
     1.008573         10.98
     1.006556         14.07
##############################################################################
###                            Comments                                    ###
##############################################################################
###   Diffraction pattern calculated by Match!. 
###   I/Ic calculated by Match!. 
##############################################################################


