##############################################################################
###               Crystal structure data exported by Match!                ###
##############################################################################
###                           Data published by:                           ###
###                                                                        ###
###               COD (Crystallography Open Database)
##############################################################################
data_9014269
_citation_journal_full    'Journal of Applied Physics'
_citation_journal_volume  '51'
_citation_page_first  '5362'
_citation_page_last   '5367'
_citation_year  '1980'
_citation_title  'Crystal structure and isothermal compression of Fe2O3, Cr2O3, and V2O3 to 50 kbarsNote: P = 40.6 kbar'
loop_
_publ_author_name
  'Finger L. W.'
  'Hazen R. M.'
_chemical_formula_sum  'Cr2 O3'
_chemical_name_mineral  'Eskolaite'
_symmetry_space_group_name_H-M 'R -3 c'
_space_group_IT_number 167
_space_group_crystal_system 'trigonal (hexagonal axes)'
loop_
_symmetry_equiv_pos_as_xyz
   'x, y, z'
   'x+0.66667, y+0.33333, z+0.33333'
   'x+0.33333, y+0.66667, z+0.66667'
   '-y, x-y, z'
   '-y+0.66667, x-y+0.33333, z+0.33333'
   '-y+0.33333, x-y+0.66667, z+0.66667'
   '-x+y, -x, z'
   '-x+y+0.66667, -x+0.33333, z+0.33333'
   '-x+y+0.33333, -x+0.66667, z+0.66667'
   'x-y, -y, -z+0.5'
   'x-y+0.66667, -y+0.33333, -z+0.83333'
   'x-y+0.33333, -y+0.66667, -z+0.16667'
   '-x, -x+y, -z+0.5'
   '-x+0.66667, -x+y+0.33333, -z+0.83333'
   '-x+0.33333, -x+y+0.66667, -z+0.16667'
   'y, x, -z+0.5'
   'y+0.66667, x+0.33333, -z+0.83333'
   'y+0.33333, x+0.66667, -z+0.16667'
   '-x, -y, -z'
   '-x+0.66667, -y+0.33333, -z+0.33333'
   '-x+0.33333, -y+0.66667, -z+0.66667'
   'y, -x+y, -z'
   'y+0.66667, -x+y+0.33333, -z+0.33333'
   'y+0.33333, -x+y+0.66667, -z+0.66667'
   'x-y, x, -z'
   'x-y+0.66667, x+0.33333, -z+0.33333'
   'x-y+0.33333, x+0.66667, -z+0.66667'
   '-x+y, y, z+0.5'
   '-x+y+0.66667, y+0.33333, z+0.83333'
   '-x+y+0.33333, y+0.66667, z+0.16667'
   'x, x-y, z+0.5'
   'x+0.66667, x-y+0.33333, z+0.83333'
   'x+0.33333, x-y+0.66667, z+0.16667'
   '-y, -x, z+0.5'
   '-y+0.66667, -x+0.33333, z+0.83333'
   '-y+0.33333, -x+0.66667, z+0.16667'
_cell_length_a        4.92330
_cell_length_b        4.92330
_cell_length_c       13.49530
_cell_angle_alpha    90.0000
_cell_angle_beta     90.0000
_cell_angle_gamma   120.0000
loop_
_atom_site_label
_atom_site_fract_x
_atom_site_fract_y
_atom_site_fract_z
_atom_site_occupancy
_atom_site_B_iso_or_equiv
cr      0.000   0.000   0.348    1.00000    0.409
o      0.302   0.000   0.250    1.00000    0.330
_cell_measurement_wavelength    1.541874
_cell_measurement_radiation   'x-rays'
_exptl_crystal_density_diffrn    5.346000
loop_
_pd_peak_d_spacing
_pd_peak_intensity
     3.604424        720.08
     2.645718       1000.00
     2.461650        943.57
     2.249217         63.78
     2.159463        283.67
     2.032809         52.15
     1.802212        395.64
     1.660469        880.55
     1.600160         10.02
     1.568604         19.07
     1.567445         56.32
     1.454157        308.22
     1.421234        387.88
     1.383659          5.06
     1.322859          2.42
     1.286620        153.24
     1.280602         27.77
     1.236449          2.99
     1.230825         84.05
     1.201475         61.57
     1.187188         15.07
     1.178024          1.00
     1.165261          5.22
     1.164786         36.22
     1.140264         76.89
     1.124608         19.96
     1.115973         78.76
     1.083141          0.72
     1.079732        157.89
     1.052870         18.99
     1.034654        125.28
     1.022915         11.98
     1.016404         23.41
     1.008019          0.59
##############################################################################
###                            Comments                                    ###
##############################################################################
###   Synthetic
###   Diffraction pattern calculated by Match!. 
###   I/Ic calculated by Match!. 
##############################################################################


