##############################################################################
###               Crystal structure data exported by Match!                ###
##############################################################################
###                           Data published by:                           ###
###                                                                        ###
###               COD (Crystallography Open Database)
##############################################################################
data_9007150
_citation_journal_full    'Physics and Chemistry of Minerals'
_citation_journal_volume  '29'
_citation_page_first  '633'
_citation_page_last   '641'
_citation_year  '2002'
_citation_title  'Bonding character of SiO2 stishovite under high pressures up to 30 GPaSample: P = 1 atm'
loop_
_publ_author_name
  'Yamanaka T.'
  'Fukuda T.'
  'Tsuchiya J.'
_chemical_formula_sum  'O2 Si'
_chemical_name_mineral  'Stishovite'
_symmetry_space_group_name_H-M 'P 42/m n m'
_space_group_IT_number 136
_space_group_crystal_system 'tetragonal'
loop_
_symmetry_equiv_pos_as_xyz
   'x, y, z'
   '-y+0.5, x+0.5, z+0.5'
   '-x, -y, z'
   'y+0.5, -x+0.5, z+0.5'
   'x+0.5, -y+0.5, -z+0.5'
   '-x+0.5, y+0.5, -z+0.5'
   'y, x, -z'
   '-y, -x, -z'
   '-x, -y, -z'
   'y+0.5, -x+0.5, -z+0.5'
   'x, y, -z'
   '-y+0.5, x+0.5, -z+0.5'
   '-x+0.5, y+0.5, z+0.5'
   'x+0.5, -y+0.5, z+0.5'
   '-y, -x, z'
   'y, x, z'
_cell_length_a        4.18120
_cell_length_b        4.18120
_cell_length_c        2.66620
_cell_angle_alpha    90.0000
_cell_angle_beta     90.0000
_cell_angle_gamma    90.0000
loop_
_atom_site_label
_atom_site_fract_x
_atom_site_fract_y
_atom_site_fract_z
_atom_site_occupancy
_atom_site_B_iso_or_equiv
si      0.000   0.000   0.000    1.00000    0.245
o      0.306   0.306   0.000    1.00000    0.272
_cell_measurement_wavelength    1.541874
_cell_measurement_radiation   'x-rays'
_cell_measurement_pressure       100.000000
_exptl_crystal_density_diffrn    4.281000
loop_
_pd_peak_d_spacing
_pd_peak_intensity
     2.956555       1000.00
     2.248045        245.24
     2.090600          6.92
     1.980005        397.20
     1.869889        150.28
     1.530915        580.19
     1.478277        193.95
     1.333100        100.42
     1.322212         61.43
     1.292853         13.37
     1.235155        264.37
     1.215275        102.16
     1.184551         21.22
     1.159656          4.66
     1.124023         10.98
     1.085484         26.83
     1.063422         28.38
     1.045300         34.91
     1.014090         25.37
##############################################################################
###                            Comments                                    ###
##############################################################################
###   Diffraction pattern calculated by Match!. 
###   I/Ic calculated by Match!. 
###   Space group has been derived from given symmetry operations. 
##############################################################################


