##############################################################################
###               Crystal structure data exported by Match!                ###
##############################################################################
###                           Data published by:                           ###
###                                                                        ###
###               COD (Crystallography Open Database)
##############################################################################
data_9008577
_citation_journal_full    'Crystal Structures'
_citation_journal_volume  '1'
_citation_page_first  '7'
_citation_page_last   '83'
_citation_year  '1963'
_citation_title  'Second edition. Interscience Publishers, New York, New York'
loop_
_publ_author_name
  'Wyckoff R. W. G.'
_chemical_formula_sum  'S8'
_chemical_name_mineral  'Sulphur'
_chemical_name_common  'Sulphur'
_symmetry_space_group_name_H-M 'F d d d'
_space_group_IT_number 70
_space_group_crystal_system 'orthorhombic'
loop_
_symmetry_equiv_pos_as_xyz
   'x, y, z'
   'x+0.5, y+0.5, z'
   'x+0.5, y, z+0.5'
   'x, y+0.5, z+0.5'
   '-x+0.25, -y+0.25, z'
   '-x+0.75, -y+0.75, z'
   '-x+0.75, -y+0.25, z+0.5'
   '-x+0.25, -y+0.75, z+0.5'
   'x, -y+0.25, -z+0.25'
   'x+0.5, -y+0.75, -z+0.25'
   'x+0.5, -y+0.25, -z+0.75'
   'x, -y+0.75, -z+0.75'
   '-x+0.25, y, -z+0.25'
   '-x+0.75, y+0.5, -z+0.25'
   '-x+0.75, y, -z+0.75'
   '-x+0.25, y+0.5, -z+0.75'
   '-x, -y, -z'
   '-x+0.5, -y+0.5, -z'
   '-x+0.5, -y, -z+0.5'
   '-x, -y+0.5, -z+0.5'
   'x+0.25, y+0.25, -z'
   'x+0.75, y+0.75, -z'
   'x+0.75, y+0.25, -z+0.5'
   'x+0.25, y+0.75, -z+0.5'
   '-x, y+0.25, z+0.25'
   '-x+0.5, y+0.75, z+0.25'
   '-x+0.5, y+0.25, z+0.75'
   '-x, y+0.75, z+0.75'
   'x+0.25, -y, z+0.25'
   'x+0.75, -y+0.5, z+0.25'
   'x+0.75, -y, z+0.75'
   'x+0.25, -y+0.5, z+0.75'
_cell_length_a       10.46700
_cell_length_b       12.87000
_cell_length_c       24.49300
_cell_angle_alpha    90.0000
_cell_angle_beta     90.0000
_cell_angle_gamma    90.0000
loop_
_atom_site_label
_atom_site_fract_x
_atom_site_fract_y
_atom_site_fract_z
_atom_site_occupancy
_atom_site_B_iso_or_equiv
s      0.855   0.953   0.952    1.00000    1.000
s      0.784   0.030   0.076    1.00000    1.000
s      0.707   0.980   0.004    1.00000    1.000
s      0.786   0.907   0.129    1.00000    1.000
_cell_measurement_wavelength    1.541874
_cell_measurement_radiation   'x-rays'
_exptl_crystal_density_diffrn    2.066000
loop_
_pd_peak_d_spacing
_pd_peak_intensity
     7.707875         66.10
     6.123250          0.02
     5.757480        148.64
     5.696465         61.57
     4.812477         17.35
     4.194504         20.61
     4.060229        118.76
     3.918400        138.05
     3.853937       1000.00
     3.569935         66.23
     3.447077        387.44
     3.383900         27.23
     3.336070        226.63
     3.218787        248.72
     3.217500        113.15
     3.213388        129.02
     3.113048        210.66
     3.084064        151.58
     3.061625         11.05
     2.878740          0.01
     2.848233        193.46
     2.775010          2.48
     2.690439         21.37
     2.674764         12.10
     2.624838        117.34
     2.616750         25.85
     2.580391          3.14
     2.569292         38.00
     2.501737         83.01
     2.486616         45.32
     2.444537          0.08
     2.426321        145.74
     2.406239         24.24
     2.390031          0.29
     2.377866         44.43
     2.369182         51.28
     2.289093         72.44
     2.275571          0.12
     2.253823          2.80
     2.244590          0.89
     2.226441          5.42
     2.218376          1.92
     2.217955         17.75
     2.147373         37.28
     2.140963          6.22
     2.116638         73.75
     2.112836         88.28
     2.097252         22.49
     2.084239          1.00
     2.063951          0.15
     2.058931         17.11
     2.042134         13.04
     2.041083          0.00
     2.033884          4.17
     2.030114          0.50
     2.007712         18.70
     2.003091          0.69
     2.002783          9.10
     1.989191         41.38
     1.984763          0.08
     1.959200         35.82
     1.941981          0.37
     1.926969         14.83
     1.919160          1.34
     1.907779         17.23
     1.903813         82.53
     1.900462         30.68
     1.898822         12.47
     1.888057          2.84
     1.875832          0.83
     1.857327          8.75
     1.840896         12.47
     1.835325         11.76
     1.833312          4.25
     1.826352         22.03
     1.823626         49.60
     1.817739          0.10
     1.805918          5.30
     1.784967          0.55
     1.782421        155.57
     1.779185          0.98
     1.767884          7.28
     1.756284         89.91
     1.727065         73.55
     1.723539         51.26
     1.722902         23.83
     1.719590         13.62
     1.702085          0.06
     1.698509        105.44
     1.691950          0.50
     1.688220          2.65
     1.683726          0.23
     1.668035          3.84
     1.665426         24.15
     1.662612         11.67
     1.659245          2.86
     1.657018         24.40
     1.648224         71.69
     1.645664          8.64
     1.644221         11.14
     1.643875          0.91
     1.637049          3.34
     1.623469         34.81
     1.622977         61.01
     1.620533         19.08
     1.613669          5.14
     1.609393         17.41
     1.608750          0.26
     1.608235          0.32
     1.606694         60.80
     1.604159          0.27
     1.601169          4.01
     1.600824         25.05
     1.595202         25.89
     1.592881          6.46
     1.563014         23.88
     1.561304          5.76
     1.556524          0.44
     1.555946          0.92
     1.547561          4.81
     1.546361          3.20
     1.543678          1.93
     1.542032         16.37
     1.541575          0.72
     1.536837         18.06
     1.530813         23.93
     1.525757          2.97
     1.521703          0.00
     1.516582          4.57
     1.514587          4.17
     1.510096          0.33
     1.507597          0.14
     1.504533         26.51
     1.491427         13.09
     1.487640          2.82
##############################################################################
###                            Comments                                    ###
##############################################################################
###   Diffraction pattern calculated by Match!. 
###   I/Ic calculated by Match!. 
###   Space group has been derived from given symmetry operations. 
##############################################################################


