##############################################################################
###               Crystal structure data exported by Match!                ###
##############################################################################
###                           Data published by:                           ###
###                                                                        ###
###               COD (Crystallography Open Database)
##############################################################################
data_2221487
_citation_journal_full    'Acta Crystallographica Section E'
_citation_journal_volume  '65(4)'
_citation_page_first  'i28'
_citation_year  '2009'
_citation_title  'A polymorph structure of copper(II) hydrogenphosphite dihydrate'
loop_
_publ_author_name
  'Yang Lei'
  'Li Suping'
  'Wang Qiufen'
_chemical_formula_sum  'Cu H5 O5 P'
_chemical_name_common  'copper(II) hydrogenphosphite dihydrate'
_symmetry_space_group_name_H-M 'P 1 21/c 1'
_space_group_IT_number 14
_space_group_crystal_system 'monoclinic'
loop_
_symmetry_equiv_pos_as_xyz
   'x, y, z'
   '-x, y+0.5, -z+0.5'
   '-x, -y, -z'
   'x, -y+0.5, z+0.5'
_cell_length_a        7.12940
_cell_length_b        7.33460
_cell_length_c        8.83130
_cell_angle_alpha    90.0000
_cell_angle_beta    110.4280
_cell_angle_gamma    90.0000
_cell_formula_units_Z 4
loop_
_atom_site_label
_atom_site_fract_x
_atom_site_fract_y
_atom_site_fract_z
_atom_site_occupancy
_atom_site_B_iso_or_equiv
cu      0.228   0.028   0.590    1.00000    0.817
p      -0.087   0.282   0.668    1.00000    0.781
o      0.126   0.218   0.697    1.00000    1.144
o      0.246   -0.141   0.420    1.00000    1.136
o      0.108   -0.166   0.672    1.00000    1.364
o      0.358   0.221   0.501    1.00000    1.018
o      0.531   0.018   0.783    1.00000    1.846
h      -0.116   0.420   0.582    1.00000    1.500
h      0.298   0.262   0.403    1.00000    4.421
h      0.482   0.197   0.506    1.00000    1.737
h      0.630   0.073   0.766    1.00000    4.025
h      0.580   -0.075   0.841    1.00000    3.395
_cell_measurement_wavelength    1.541874
_cell_measurement_radiation   'x-rays'
_cell_measurement_temperature    296.000000
_exptl_crystal_density_diffrn    2.754000
_exptl_crystal_colour            'blue'
loop_
_pd_peak_d_spacing
_pd_peak_intensity
     6.681043        178.93
     5.489111       1000.00
     4.939136          0.38
     4.824259        353.42
     4.242652         41.99
     4.137956          0.07
     3.828708         62.78
     3.672505          3.90
     3.667300          2.11
     3.603968        174.31
     3.352855          2.94
     3.340521         89.18
     3.214823         88.55
     3.202317         80.92
     3.201707         68.73
     3.182499         45.40
     3.070673        132.44
     3.040065         81.76
     2.934790          0.25
     2.840000          1.40
     2.832463         62.85
     2.774464        565.47
     2.744556         22.47
     2.726492         63.96
     2.598917        338.20
     2.582047          0.19
     2.553897         20.87
     2.470408         21.02
     2.469568         85.96
     2.412129          3.17
     2.354344          3.28
     2.344693         13.32
     2.329482          5.23
     2.295966          5.76
     2.292425          0.76
     2.284103         16.82
     2.253353         42.48
     2.244414         53.80
     2.227014         23.28
     2.220195         20.98
     2.215025         10.38
     2.205881          1.58
     2.204553         20.51
     2.180769        105.88
     2.147058          0.10
     2.146180          5.55
     2.133841         16.94
     2.130951         10.30
     2.121326         31.61
     2.118317          6.01
     2.112414         31.03
     2.104915          1.47
     2.068978         13.03
     2.049811         28.52
     2.037807         16.03
     2.015125         45.85
     1.991270          0.64
     1.989250          0.34
     1.972918         14.09
     1.966327         55.98
     1.943259         45.24
     1.938780          0.16
     1.914972          0.15
     1.914354         26.21
     1.912661          2.71
     1.903523         14.07
     1.890275         36.58
     1.879014         66.13
     1.877335          1.24
     1.845021          0.74
     1.836252         50.15
     1.835678          3.39
     1.833650         38.11
     1.829704          0.21
     1.818705          7.83
     1.806244         25.04
     1.801984         10.07
     1.790234         20.01
     1.788668          8.27
     1.780734          0.17
     1.779331          0.80
     1.768261          0.40
     1.762825          2.40
     1.753845          0.07
     1.744854          0.36
     1.729176          1.88
     1.725724         21.23
     1.712114         19.80
     1.707769          1.37
     1.700905         65.32
     1.697687         24.80
     1.697485         16.40
     1.686509          1.68
     1.683175         14.87
     1.679853          1.19
     1.676428          0.03
     1.673783         11.78
     1.671102         31.93
     1.670261          2.19
     1.669031         45.43
     1.653372          9.10
     1.646379          1.92
     1.641502         15.22
     1.637785         28.45
     1.629994          2.00
     1.628567          5.12
     1.620369         12.66
     1.614581         36.38
     1.608086         34.51
     1.607412          3.20
     1.602271          1.40
     1.601158          5.51
     1.600853          1.01
     1.591250          6.92
     1.589395          0.18
     1.587287          7.08
     1.583823          2.03
     1.579352         28.07
     1.575770          0.01
     1.574318         17.38
     1.564318          1.05
     1.561478          1.64
     1.556600          7.02
     1.555395          1.22
     1.540463         14.73
     1.535337          2.24
     1.530546          0.27
     1.527078          6.69
     1.520033         55.10
     1.508642          6.28
     1.503901         14.45
     1.502977         21.86
     1.502765          2.07
     1.489001          1.76
     1.488034          2.97
     1.468476         18.64
     1.467947          0.46
     1.467395         17.15
     1.466080         11.99
     1.460002          0.26
     1.455138          0.71
     1.452775          0.26
     1.449774          6.15
     1.444405          5.74
     1.440828         13.28
     1.439900          8.94
     1.438660         22.24
     1.432790         21.18
     1.429894          6.28
     1.429884          0.47
     1.429223         30.63
     1.428790          0.70
     1.427319          1.30
     1.426261          6.91
     1.425327         11.92
     1.420373         19.50
     1.420000          2.81
     1.417182          2.12
     1.416232          6.45
     1.415563          2.32
     1.414217          7.05
     1.410089          4.52
     1.409879          2.63
     1.406285          6.38
     1.399153          0.46
     1.394354          9.68
     1.391001          4.26
     1.389620         15.04
     1.388640          1.82
     1.387232         11.10
     1.386390          0.03
     1.385819          7.32
     1.385400          0.20
     1.382612         13.39
     1.380268          0.19
     1.379319          0.88
     1.379146          0.00
     1.373417          9.31
     1.372278          1.03
     1.370621         15.98
     1.365331          1.17
     1.363246          1.99
     1.359331          1.64
     1.356216          0.03
     1.355557          0.24
     1.355113          2.58
     1.354175          0.44
     1.352555          7.97
     1.346537         12.16
     1.343125          0.38
     1.339470          0.15
     1.336571          5.17
     1.336209          0.08
     1.333653          1.50
     1.328515         12.15
     1.323638         11.64
     1.319505          4.24
     1.317084          2.62
     1.314572          2.54
     1.312331          5.12
     1.311855         17.96
     1.311759          1.02
     1.306423          1.04
     1.305503          4.38
     1.300952         11.79
     1.300216          1.67
     1.299458          1.16
     1.297303         19.09
     1.297295          0.73
     1.295189          1.29
     1.291570          9.20
     1.291362          0.17
     1.291023         34.17
     1.286788         16.07
     1.285302          2.09
     1.280387          1.16
     1.276949          3.43
     1.276236          4.08
     1.274590          2.10
     1.272220          2.93
     1.270031          3.98
     1.268255          3.29
     1.266155          1.11
     1.264109          0.00
     1.261828          2.33
     1.258854          0.60
     1.256694         15.03
     1.255469         12.19
     1.254147          0.36
     1.251701          1.30
     1.250421          0.86
     1.247701          0.04
     1.247012          0.01
     1.243338          7.74
     1.241306          0.03
     1.235386          0.38
     1.235204          0.48
     1.234784          0.67
     1.234289          1.21
     1.234287          3.88
     1.231352          2.68
     1.230965          3.40
     1.229897          9.88
     1.228654          0.31
     1.227913          2.68
     1.225040          8.42
     1.224168          2.35
     1.223484          6.93
     1.222433          1.47
     1.222234          5.79
     1.221488          0.13
     1.221223          9.33
     1.217446          1.90
     1.213701          5.34
     1.209312          0.67
     1.209283          0.00
     1.209017          2.13
     1.208110          1.13
     1.206540          1.20
     1.206065          1.20
     1.202471          0.02
     1.201323          0.92
     1.200757         17.12
     1.196831          0.22
     1.196662          0.05
     1.192979          0.83
     1.189340          8.82
     1.188048          0.01
     1.184979          1.36
     1.183934          0.72
     1.182036          1.58
     1.179479          6.47
     1.179478          0.42
     1.177717          0.78
     1.177172          0.01
     1.175407          0.25
     1.174647          4.26
     1.174005          0.49
     1.173402          0.03
     1.172518          3.74
     1.172346          0.12
     1.171005          3.91
     1.168805          4.41
     1.167207          3.41
     1.164741         12.88
     1.163290          0.14
     1.159287          0.01
     1.158776          0.77
     1.156275         11.22
     1.156124          4.70
     1.156109          0.24
     1.155959          1.75
     1.155893          4.44
     1.151606          0.97
     1.150327          0.21
     1.147983          1.80
     1.146212          2.77
     1.145961          0.48
     1.144579          0.28
     1.144104          0.36
     1.142052          0.00
     1.142032          5.88
     1.140805          0.60
     1.139836          0.01
     1.138699          4.28
     1.136212          5.43
     1.135744          0.69
     1.134631          0.11
     1.131864          0.48
     1.131332          0.00
     1.128646          1.22
     1.128577          1.43
     1.128435          3.21
     1.127038          1.98
     1.126676          0.00
     1.125796          0.11
     1.125336          7.41
     1.125245          2.22
     1.124327          1.17
     1.122893          0.01
     1.122207          0.91
     1.121734          0.67
     1.121132          0.00
     1.119845          2.99
     1.118976          0.22
     1.118363          0.59
     1.117687          2.85
     1.117618          2.36
     1.115893          2.41
     1.114484          0.06
     1.113507          5.28
     1.112035          1.69
     1.111815          2.97
     1.110174          7.50
     1.110098          2.36
     1.109298          4.67
     1.108066          0.04
     1.107512          4.49
     1.106510          6.20
     1.104929          6.74
     1.104836          0.30
     1.104502          0.24
     1.102940          0.56
     1.102276          0.29
     1.102188          1.48
     1.100893          0.46
     1.097822          2.07
     1.097396          0.17
     1.095624          1.97
     1.091995          1.41
     1.090678          1.06
     1.090384          4.55
     1.089804          0.65
     1.087990          0.45
     1.086222          0.10
     1.083601          0.12
     1.083239          6.12
     1.082444          0.15
     1.081618          0.61
     1.080948          7.88
     1.079899          0.09
     1.077781          0.20
     1.073883          0.19
     1.073529          2.40
     1.073090          0.26
     1.071608          0.90
     1.069505          0.00
     1.069397          0.08
     1.069227          0.07
     1.067439          0.04
     1.067236          3.15
     1.067038          1.97
     1.066921          3.88
     1.065570          0.00
     1.065476          0.18
     1.064358          0.48
     1.063495          2.41
     1.061386          0.40
     1.061030          0.08
     1.060833          0.24
     1.060663          0.24
     1.060631          2.41
     1.059158          0.76
     1.056311          0.08
     1.056207          1.24
     1.054414          4.18
     1.053766          0.55
     1.052458          0.65
     1.051512          0.91
     1.050083          4.23
     1.049776          5.41
     1.049743          2.31
     1.049447          0.09
     1.047494          3.75
     1.047116          3.66
     1.046753          0.15
     1.045270          0.10
     1.045156          5.67
     1.041898          0.22
     1.040710          3.29
     1.040699          1.22
     1.039502          1.23
     1.039354          1.99
     1.037819          1.48
     1.036846          0.59
     1.035147          3.73
     1.034712          0.68
     1.034489          1.25
     1.034053          0.15
     1.034051          0.83
     1.033800          6.23
     1.033078          4.95
     1.032094          2.39
     1.027672          4.03
     1.026331          0.12
     1.024906          3.58
     1.024401          1.43
     1.024351          0.00
     1.023558          0.00
     1.023173          0.03
     1.022246          0.51
     1.020580          0.80
     1.020370          1.61
     1.019899          0.03
     1.018903          1.30
     1.018125          2.64
     1.017468         10.76
     1.017237          0.91
     1.017011          0.70
     1.015742          1.94
     1.014707          0.45
     1.013734          1.20
     1.013355          0.69
     1.012375          0.23
     1.012079          2.71
     1.011253          0.03
     1.010456          1.10
     1.008830          0.01
     1.008801          0.76
     1.007563          0.10
##############################################################################
###                            Comments                                    ###
##############################################################################
###   Diffraction pattern calculated by Match!. 
###   I/Ic calculated by Match!. 
##############################################################################


