##############################################################################
###               Crystal structure data exported by Match!                ###
##############################################################################
###                           Data published by:                           ###
###                                                                        ###
###               COD (Crystallography Open Database)
##############################################################################
data_9009762
_citation_journal_full    'Journal of Solid State Chemistry'
_citation_journal_volume  '103'
_citation_page_first  '105'
_citation_page_last   '113'
_citation_year  '1993'
_citation_title  'Refinement of the structures of the layer silicates MCuSi4O10 (M=Ca,Sr,Ba)by Rietveld analysis of neutron powder diffraction dataNote: gillespite structureLocality: synthetic'
loop_
_publ_author_name
  'Chakoumakos B. C.'
  'Fernandez-Baca J A'
  'Boatner L. A.'
_chemical_formula_sum  'Ca Cu O10 Si4'
_chemical_name_mineral  'Cuprorivaite'
_symmetry_space_group_name_H-M 'P 4/n c c'
_space_group_IT_number 130
_space_group_crystal_system 'tetragonal'
loop_
_symmetry_equiv_pos_as_xyz
   'x, y, z'
   '-y+0.5, x, z'
   '-x+0.5, -y+0.5, z'
   'y, -x+0.5, z'
   'x+0.5, -y, -z+0.5'
   '-x, y+0.5, -z+0.5'
   'y+0.5, x+0.5, -z+0.5'
   '-y, -x, -z+0.5'
   '-x, -y, -z'
   'y+0.5, -x, -z'
   'x+0.5, y+0.5, -z'
   '-y, x+0.5, -z'
   '-x+0.5, y, z+0.5'
   'x, -y+0.5, z+0.5'
   '-y+0.5, -x+0.5, z+0.5'
   'y, x, z+0.5'
_cell_length_a        7.30170
_cell_length_b        7.30170
_cell_length_c       15.13030
_cell_angle_alpha    90.0000
_cell_angle_beta     90.0000
_cell_angle_gamma    90.0000
loop_
_atom_site_label
_atom_site_fract_x
_atom_site_fract_y
_atom_site_fract_z
_atom_site_occupancy
_atom_site_B_iso_or_equiv
ca      0.250   0.750   0.000    1.00000    0.710
cu      0.250   0.250   0.082    1.00000    0.394
si      0.504   0.927   0.147    1.00000    0.394
o      0.461   0.961   0.250    1.00000    1.500
o      0.708   0.003   0.127    1.00000    0.789
o      0.353   0.007   0.082    1.00000    0.710
_cell_measurement_wavelength    1.541874
_cell_measurement_radiation   'x-rays'
_exptl_crystal_density_diffrn    3.096000
loop_
_pd_peak_d_spacing
_pd_peak_intensity
     7.565150        239.72
     5.253750        111.45
     5.163082         65.91
     4.264560          2.92
     3.782575        620.90
     3.650850         89.58
     3.358654        761.20
     3.287999       1000.00
     3.191928        360.21
     3.051326        333.98
     2.998053        954.36
     2.741048         29.90
     2.626875        200.47
     2.581541        293.59
     2.521717          9.79
     2.471781         33.11
     2.443207         19.77
     2.383571         76.16
     2.316942        157.16
     2.309000         18.61
     2.282574         75.41
     2.265896        281.39
     2.219549          0.10
     2.208426          5.56
     2.132280         22.82
     2.099436         10.02
     2.074876         41.98
     2.046792          4.94
     2.007228         80.80
     1.995858         59.12
     1.970824        126.13
     1.956249         29.18
     1.891287         34.43
     1.879285         18.06
     1.835648         65.80
     1.830867        125.02
     1.825425        257.14
     1.803902          2.01
     1.802385          0.78
     1.785355        210.84
     1.775890         69.48
     1.774498         26.11
     1.758915         99.27
     1.751250          2.40
     1.724308         13.38
     1.721027          4.06
     1.702954        224.01
     1.683015          1.87
     1.679327         24.48
     1.678150          0.41
     1.670908          0.28
     1.643999         24.70
     1.636600          2.70
     1.632710        106.30
     1.623286          0.12
     1.603849        125.51
     1.595964        163.61
     1.578988          8.88
     1.577970         43.24
     1.566504         55.83
     1.553342          0.10
     1.528426         38.63
     1.525663          0.84
     1.513030          4.17
     1.499027          1.65
     1.494689          2.69
     1.493411          0.28
     1.481556         65.30
     1.478668          0.78
     1.477833          0.10
     1.463122         53.09
     1.453585         49.41
     1.451969          0.38
     1.449250         20.42
     1.436901          0.11
     1.433870         75.06
     1.431981          4.20
     1.425611         24.65
     1.421520         39.57
     1.406997          0.07
     1.402721          1.28
     1.397749        127.18
     1.382238        111.02
     1.377532         78.67
     1.372822          2.19
     1.370524         29.55
     1.369858          1.62
     1.362337         24.40
     1.359078          7.82
     1.350480         14.70
     1.339226         44.42
     1.334625        128.52
     1.315199         27.14
     1.313437         13.66
     1.309398          5.22
     1.305351          1.51
     1.302802          0.34
     1.294370          0.12
     1.293518          1.40
     1.292690         59.71
     1.290770          6.40
     1.284979         10.82
     1.276368         19.15
     1.272896         20.21
     1.272383          8.85
     1.267614         21.72
     1.265531          0.70
     1.263730          6.48
     1.260858         14.65
     1.252231          3.27
     1.247964         30.86
     1.245218         56.57
     1.242470          1.25
     1.237358          3.20
     1.235890          3.29
     1.235421          0.84
     1.224864          2.51
     1.221603          3.23
     1.219252         43.95
     1.216950          1.76
     1.215330         28.79
     1.212093         20.04
     1.210051          0.60
     1.201504          7.61
     1.196632          0.12
     1.194210          5.56
     1.193769         65.81
     1.191786          9.05
     1.188782         10.84
     1.185560         36.01
     1.181699          7.93
     1.176221          5.79
     1.171249          0.00
     1.167771         10.30
     1.164898          0.20
     1.158471          4.95
     1.157073          8.43
     1.155873         16.52
     1.154500         13.24
     1.151154          0.02
     1.150350         43.36
     1.148997          0.89
     1.148605          0.10
     1.144160          3.55
     1.141657         27.07
     1.141287         27.45
     1.137841         14.27
     1.137109         15.33
     1.136335          0.11
     1.132948         47.36
     1.127596          0.38
     1.125391          0.12
     1.121560         60.60
     1.119551          8.57
     1.115807          0.39
     1.112258          1.18
     1.109774         40.83
     1.106619          3.12
     1.104213          5.10
     1.102476         26.58
     1.101963          3.32
     1.096314          0.04
     1.096000          0.04
     1.091799         12.92
     1.090120          3.94
     1.086305          3.81
     1.085667          0.43
     1.083858          4.16
     1.083528         13.56
     1.080736         17.85
     1.078663          0.08
     1.077379          2.70
     1.070355          8.96
     1.069089          9.95
     1.067082         18.77
     1.066140          1.72
     1.063976          2.82
     1.057810          0.06
     1.055404          1.00
     1.051941          0.11
     1.050750         17.59
     1.049718         10.55
     1.049419          0.20
     1.046026         29.71
     1.044112         15.16
     1.040036          0.18
     1.039304          1.21
     1.039036          3.86
     1.037438         12.98
     1.036284          0.05
     1.033324          5.04
     1.032616          1.28
     1.030220         10.44
     1.027122          1.26
     1.026003          2.88
     1.024229          0.01
     1.023396          0.04
     1.023129          0.27
     1.018341          0.39
     1.017109          0.79
     1.013490          0.79
     1.012564         41.53
     1.011630         23.08
     1.010304          0.01
     1.009760         13.12
     1.009090          0.00
     1.008579          0.01
##############################################################################
###                            Comments                                    ###
##############################################################################
###   Diffraction pattern calculated by Match!. 
###   I/Ic calculated by Match!. 
###   Space group has been derived from given symmetry operations. 
##############################################################################


