##############################################################################
###               Crystal structure data exported by Match!                ###
##############################################################################
###                           Data published by:                           ###
###                                                                        ###
###               COD (Crystallography Open Database)
##############################################################################
data_9001579
_citation_journal_full    'American Mineralogist'
_citation_journal_volume  '79'
_citation_page_first  '9'
_citation_page_last   '14'
_citation_year  '1994'
_citation_title  'The pressure behavior of alpha cristobaliteP = 0.19 GPa'
loop_
_publ_author_name
  'Downs R. T.'
  'Palmer D. C.'
_chemical_formula_sum  'O2 Si'
_chemical_name_mineral  'Cristobalite'
_symmetry_space_group_name_H-M 'P 41 21 2'
_space_group_IT_number 92
_space_group_crystal_system 'tetragonal'
loop_
_symmetry_equiv_pos_as_xyz
   'x, y, z'
   '-y+0.5, x+0.5, z+0.25'
   '-x, -y, z+0.5'
   'y+0.5, -x+0.5, z+0.75'
   'x+0.5, -y+0.5, -z+0.75'
   '-x+0.5, y+0.5, -z+0.25'
   'y, x, -z'
   '-y, -x, -z+0.5'
_cell_length_a        4.95010
_cell_length_b        4.95010
_cell_length_c        6.87600
_cell_angle_alpha    90.0000
_cell_angle_beta     90.0000
_cell_angle_gamma    90.0000
loop_
_atom_site_label
_atom_site_fract_x
_atom_site_fract_y
_atom_site_fract_z
_atom_site_occupancy
_atom_site_B_iso_or_equiv
si      0.303   0.303   0.000    1.00000    0.799
o      0.239   0.109   0.182    1.00000    1.219
_cell_measurement_wavelength    1.541874
_cell_measurement_radiation   'x-rays'
_cell_measurement_pressure       190000.000000
_exptl_crystal_density_diffrn    2.369000
loop_
_pd_peak_d_spacing
_pd_peak_intensity
     4.017348       1000.00
     3.500249          8.23
     3.119341        100.18
     2.823755        125.48
     2.475050        150.83
     2.452745         34.89
     2.328777          0.44
     2.213752          0.00
     2.107233         29.81
     2.079868          1.44
     2.008674         22.83
     1.917487         57.20
     1.861271         57.62
     1.750125          5.52
     1.719000         10.70
     1.696048          1.14
     1.681682         27.90
     1.623872          5.12
     1.604482         41.68
     1.592303          9.66
     1.565359          5.43
     1.559670          3.58
     1.542969          0.38
     1.526307         30.67
     1.487578         36.57
     1.424639         20.62
     1.411877         15.49
     1.390981         14.99
     1.372911          0.00
     1.357730         25.43
     1.346336         12.05
     1.339116          6.10
     1.325018         22.53
     1.292651         28.52
     1.279957          0.30
     1.275008         26.83
     1.237525          0.59
     1.226373          6.97
     1.217956         12.28
     1.202106          1.45
     1.200576         15.60
     1.190385          0.13
     1.182683          4.36
     1.177780         13.85
     1.168154         16.26
     1.166750          4.20
     1.164388          3.87
     1.157390         10.13
     1.150307          5.31
     1.133453          2.13
     1.116471          0.06
     1.106876          0.49
     1.104859          5.83
     1.092807         11.21
     1.089112         18.16
     1.088936          5.57
     1.081314          1.74
     1.072760          3.72
     1.063507          1.16
     1.056404          0.25
     1.053616          6.85
     1.039934          0.48
     1.039780          3.62
     1.033139          3.38
     1.017718          0.53
##############################################################################
###                            Comments                                    ###
##############################################################################
###   Diffraction pattern calculated by Match!. 
###   I/Ic calculated by Match!. 
###   Space group has been derived from given symmetry operations. 
##############################################################################


