##############################################################################
###               Crystal structure data exported by Match!                ###
##############################################################################
###                           Data published by:                           ###
###                                                                        ###
###               COD (Crystallography Open Database)
##############################################################################
data_2020190
_citation_journal_full    'Acta Crystallographica C (39,1983-)'
_citation_journal_volume  '44'
_citation_page_first  '1331'
_citation_page_last   '1334'
_citation_year  '1988'
_citation_title  'The synthesis and structure of heptacobalt tetrakis (hydrogenphosphate) bis(phosphate)'
loop_
_publ_author_name
  'Lightfoot P.'
  'Cheetham A.K.'
_chemical_formula_sum  'Co7 H4 O24 P6'
_chemical_name_common  'Co7 (H P O4)4 (P O4)2'
_symmetry_space_group_name_H-M 'P -1'
_space_group_IT_number 2
_space_group_crystal_system 'triclinic'
loop_
_symmetry_equiv_pos_as_xyz
   'x, y, z'
   '-x, -y, -z'
_cell_length_a        6.46600
_cell_length_b        9.48000
_cell_length_c        7.87100
_cell_angle_alpha   104.2900
_cell_angle_beta    101.3500
_cell_angle_gamma   109.1000
_cell_formula_units_Z 1
loop_
_atom_site_label
_atom_site_fract_x
_atom_site_fract_y
_atom_site_fract_z
_atom_site_occupancy
_atom_site_B_iso_or_equiv
o      0.448   -0.228   0.245    1.00000    1.000
p      0.226   -0.222   0.143    1.00000    1.000
p      0.410   0.373   0.231    1.00000    1.000
o      0.271   0.474   0.295    1.00000    1.000
o      0.380   -0.490   -0.205    1.00000    1.000
co      0.285   0.285   -0.187    1.00000    1.000
o      0.262   0.238   0.051    1.00000    1.000
p      0.085   -0.173   -0.422    1.00000    1.000
o      0.108   -0.098   -0.217    1.00000    1.000
o      -0.016   0.337   -0.171    1.00000    1.000
co      0.386   0.110   0.457    1.00000    1.000
h      0.373   0.562   0.406    1.00000    1.000
co      0.052   -0.485   -0.285    1.00000    1.000
h      0.826   0.202   0.125    1.00000    1.000
o      0.303   -0.086   -0.464    1.00000    1.000
o      0.054   -0.347   -0.458    1.00000    1.000
o      0.126   0.165   -0.458    1.00000    1.000
o      0.224   -0.054   0.186    1.00000    1.000
o      0.206   -0.275   -0.067    1.00000    1.000
co      0.000   0.000   0.000    1.00000    1.000
o      0.480   0.311   0.385    1.00000    1.000
_cell_measurement_wavelength    1.541874
_cell_measurement_radiation   'x-rays'
_exptl_crystal_density_diffrn    3.890000
loop_
_pd_peak_d_spacing
_pd_peak_intensity
     8.437538          3.22
     7.268612        129.12
     6.739049        173.82
     6.036702         23.28
     5.822580        125.03
     5.415327         14.38
     4.822470        304.54
     4.771159          0.17
     4.483892         42.98
     4.335392         44.02
     4.331758        350.50
     4.324238         15.56
     4.218769         20.46
     4.094621         41.02
     3.992074         83.85
     3.927738          2.69
     3.839137         78.23
     3.634306         40.23
     3.614130          1.33
     3.535714          6.65
     3.434077         61.38
     3.369525         31.29
     3.220569          8.64
     3.210417         12.24
     3.164995        354.53
     3.153152        265.18
     3.145615          0.08
     3.103081         42.95
     3.048421         23.39
     3.042950          1.03
     3.039183        278.85
     3.018351        103.46
     3.016614          6.54
     2.992523       1000.00
     2.981669        627.67
     2.961505         29.90
     2.912517        112.32
     2.911290          3.14
     2.873273        130.56
     2.863544        175.93
     2.812513         18.92
     2.733263          1.95
     2.717324        231.10
     2.707654        120.88
     2.707157        110.89
     2.671168         27.52
     2.639268         85.88
     2.631941          0.06
     2.625428         16.02
     2.614978        216.67
     2.601196         25.99
     2.568914         12.66
     2.546947          2.85
     2.524799         58.30
     2.494245         38.50
     2.493730        216.97
     2.480660          4.13
     2.467550         54.63
     2.457648          0.50
     2.422871         92.75
     2.418702        125.92
     2.411235         54.94
     2.403901          3.90
     2.385579          0.64
     2.383933         15.43
     2.368823          2.17
     2.361847          0.02
     2.360089          0.56
     2.321485          0.33
     2.319231          0.11
     2.308283          0.11
     2.295166         75.07
     2.246350         25.75
     2.241946         10.52
     2.236895         48.80
     2.230103         16.79
     2.222835         21.50
     2.212841          2.12
     2.200311          6.23
     2.198210          0.31
     2.193181          6.72
     2.177380         23.14
     2.167696         88.50
     2.165879         15.66
     2.162119         34.64
     2.156297         57.01
     2.152784         36.79
     2.146220          4.00
     2.145408         85.10
     2.143380          5.56
     2.141185          2.09
     2.130068         35.44
     2.120772          0.15
     2.118724         17.57
     2.118060        151.58
     2.109384         20.98
     2.107986         78.56
     2.079688          5.52
     2.076425          7.68
     2.071667         26.26
     2.048698          0.04
     2.047311         59.01
     2.035220          4.59
     2.029360          8.38
     2.029091         63.91
     2.013805         88.62
     2.012234         28.44
     2.007994          0.11
     1.996037         25.59
     1.979395          2.54
     1.977240         41.83
     1.971607          9.91
     1.966362         14.18
     1.963869          0.94
     1.961552          9.24
     1.956014         14.21
     1.947597         85.04
     1.942450         25.89
     1.940860         40.91
     1.938679         86.99
     1.932178          0.57
     1.923299         37.90
     1.919568          1.14
     1.918484          3.37
     1.913654          4.97
     1.906781          7.62
     1.904185          0.16
     1.903449         13.08
     1.896367         25.39
     1.894472          8.93
     1.891743         22.68
     1.882594         10.64
     1.865037        106.55
     1.849745          5.61
     1.847992          0.51
     1.845222          0.00
     1.841274          8.89
     1.839048          1.62
     1.834973         10.42
     1.832466         52.04
     1.830539          0.08
     1.825286          0.26
     1.824739          0.05
     1.822914          2.26
     1.818292         14.44
     1.817153         35.53
     1.809251          0.04
     1.809224          0.44
     1.808251          6.66
     1.807065         24.18
     1.805109          0.48
     1.801684         21.65
     1.801496          6.77
     1.799936          0.05
     1.782973         27.86
     1.781543          0.03
     1.780849          3.37
     1.776775          0.09
     1.776656          0.16
     1.775204          8.20
     1.772462         21.74
     1.771513          3.55
     1.770109          5.72
     1.767857          0.10
     1.758834         46.14
     1.755374          8.39
     1.751479         43.71
     1.749214          1.16
     1.747759          1.15
     1.746556          0.02
     1.738697         11.32
     1.736602         42.12
     1.735798         77.06
     1.734999         16.08
     1.731411          0.59
     1.724419          5.67
     1.724177          4.12
     1.718145         17.44
     1.717039          0.00
     1.712430          3.77
     1.707769         17.57
     1.707727          2.55
     1.705577         13.08
     1.692369          0.07
     1.687508         30.33
     1.684762          0.37
     1.682674          1.86
     1.673214          6.28
     1.667761          0.07
     1.665028          2.70
     1.657007          2.72
     1.641871         53.85
     1.641758          8.43
     1.638883          1.05
     1.634561         30.12
     1.634499         10.52
     1.634316          1.83
     1.633659          0.43
     1.632770         27.97
     1.617478          7.11
     1.616157          0.98
     1.610285          0.92
     1.608176          0.46
     1.607490         45.09
     1.605208          6.84
     1.603514         40.38
     1.602028          0.73
     1.593203        139.70
     1.592796        143.00
     1.590386          1.06
     1.589667          6.15
     1.588267          0.10
     1.587226         16.64
     1.585497         13.07
     1.583751         88.24
     1.582497          3.26
     1.581864          0.00
     1.580939         16.90
     1.579806          0.43
     1.576576          0.71
     1.572808          1.20
     1.572111          0.74
     1.571080          0.76
     1.569738          2.59
     1.569454          3.86
     1.569253          2.50
     1.568562          9.35
     1.561915          0.13
     1.559842         16.22
     1.558964          0.08
     1.557405          0.54
     1.552394          6.49
     1.551540          2.31
     1.546713          4.08
     1.546231          0.84
     1.543349          2.57
     1.540365          3.47
     1.540137          1.22
     1.535338         40.22
     1.534854          5.44
     1.534173         18.49
     1.530110          0.76
     1.529957         23.06
     1.525382         62.90
     1.524210         54.45
     1.523099          0.94
     1.521480          0.92
     1.521475          0.11
     1.520636         54.06
     1.519592          1.07
     1.518690          0.87
     1.518342          0.18
     1.516358          9.13
     1.515697         37.35
     1.514296          2.40
     1.510030          2.15
     1.509175         53.78
     1.508570          0.85
     1.508307          6.46
     1.505520          0.00
     1.505050          7.22
     1.501373         11.87
     1.499895          0.01
     1.496262         44.91
     1.494631          0.73
     1.494147         32.46
     1.493205          2.73
     1.492923          4.16
     1.490834          0.82
     1.485927          7.40
     1.485119          1.56
     1.484738          0.22
     1.482999         60.27
     1.480753         23.54
     1.479638         57.77
     1.476699          5.57
     1.476230          2.59
     1.476060          0.20
     1.473078          0.10
     1.472550          5.05
     1.471901          2.56
     1.468843         41.40
     1.468676          2.16
     1.466789         15.44
     1.462545         28.47
     1.458839         14.14
     1.458031         10.02
     1.456386          0.72
     1.456259          0.05
     1.455645          2.28
     1.453722          5.82
     1.453331         39.37
     1.451845          8.83
     1.447180         61.22
     1.445131          2.20
     1.445127          1.23
     1.443919          0.00
     1.443537         66.94
     1.441413         14.63
     1.437718         26.43
     1.436637          8.09
     1.436582          1.38
     1.436489          1.71
     1.433183          2.69
     1.432060          0.73
     1.431772          0.00
     1.431351         11.86
     1.430407         10.34
     1.429236          1.36
     1.429151          0.09
     1.417603          1.10
     1.412706         12.27
     1.412700          0.80
     1.412633         19.38
     1.411287          9.85
     1.411127          2.85
     1.406256          2.71
     1.405153          0.09
     1.404916         17.13
     1.401803          0.13
     1.401134          9.87
     1.400216         31.75
     1.399393          0.00
     1.398381         25.15
     1.398217         42.49
     1.392725          0.15
     1.392131          0.10
     1.391930          0.02
     1.390133          3.57
     1.390123         26.32
     1.383405          0.87
     1.382778          1.79
     1.381719          1.58
     1.378095          0.70
     1.373976         28.14
     1.371832         31.45
     1.366631          2.49
     1.366174          1.05
     1.365521          7.56
     1.365358          4.75
     1.364874          2.53
     1.362050          0.29
     1.362021          4.35
     1.361139         17.15
     1.358662          0.00
     1.358299          5.12
     1.355430          0.97
     1.353832          3.18
     1.353827          0.08
     1.353579          0.03
     1.351617          0.01
     1.350652         66.43
     1.349387         24.13
     1.349306          2.09
     1.348098          0.25
     1.347914          1.77
     1.347810          1.54
     1.346284          0.57
     1.341041          2.55
     1.340073          0.52
     1.335737          7.87
     1.335586          5.38
     1.335584          3.11
     1.335448          9.09
     1.334366         25.12
     1.333963          0.77
     1.332811          4.23
     1.330854          0.72
     1.330691          0.08
     1.329597          7.79
     1.329590          9.51
     1.327983          0.26
     1.325728          0.08
     1.323771         10.20
     1.323267         19.30
     1.322524          7.35
     1.319634         20.03
     1.319553          0.40
     1.315970          3.00
     1.312805         27.89
     1.312714          3.04
     1.312116          0.00
     1.312097          1.17
     1.311004          3.52
     1.310945         19.10
     1.310362          0.75
     1.309246          0.12
     1.307489          4.12
     1.306816          4.36
     1.303734          2.19
     1.303143          1.00
     1.302590          0.14
     1.302253          0.78
     1.301914          5.24
     1.301618          0.40
     1.301523          0.00
     1.300598          0.12
     1.299853          0.12
     1.298682          6.57
     1.298149          1.85
     1.294835          6.29
     1.294599          1.48
     1.291730          0.66
     1.291097          3.91
     1.290109          1.72
     1.289204          0.33
     1.289070          0.86
     1.288344          4.88
     1.288333         12.68
     1.288279         19.09
     1.287546          0.61
     1.285582          2.32
     1.284457          0.37
     1.283444          3.00
     1.282462          0.07
     1.281563          3.48
     1.280106          0.12
     1.279718          2.01
     1.279712          0.07
     1.279680          4.66
     1.279057          9.39
     1.278131          0.11
     1.275766          0.36
     1.274564          0.34
     1.274524          5.87
     1.273473          3.33
     1.273446          0.97
     1.273002          7.68
     1.271508          0.81
     1.269493          0.01
     1.267652          0.00
     1.266187          0.06
     1.266030          1.16
     1.264966          0.52
     1.264583          0.00
     1.264412          0.41
     1.262400          0.71
     1.261309          0.35
     1.260674          2.28
     1.260169          0.03
     1.259714          0.02
     1.259360          1.26
     1.259143         19.79
     1.259077          2.27
     1.258641          0.14
     1.258316          3.34
     1.258103         29.74
     1.257312          0.28
     1.252373          1.01
     1.251049          5.76
     1.250874          0.01
     1.249886          0.13
     1.247989          0.05
     1.247122          0.56
     1.246865          0.16
     1.242450          0.67
     1.241508          0.35
     1.240501          1.55
     1.240330          0.51
     1.240139          0.18
     1.239688          0.12
     1.239223          0.04
     1.237182          2.12
     1.236747          0.15
     1.235863          0.00
     1.233775          0.40
     1.232349          2.56
     1.232179          0.67
     1.231631          2.98
     1.231572          1.06
     1.230959          0.18
     1.230707          0.05
     1.229529          0.11
     1.228939          0.70
     1.228824          2.46
     1.228071          2.85
     1.227729          3.94
     1.227342          7.38
     1.223296         26.84
     1.222042          5.64
     1.221807          6.10
     1.220832          0.01
     1.218513          1.69
     1.217106          0.78
     1.217092          0.45
     1.216418          0.26
     1.215920          0.00
     1.214678          1.23
     1.213584          0.29
     1.212691          0.03
     1.211435          0.07
     1.210609          2.70
     1.209627          0.00
     1.209351          4.50
     1.208788          1.09
     1.208495          0.32
     1.208401          0.53
     1.207673         17.13
##############################################################################
###                            Comments                                    ###
##############################################################################
###   Diffraction pattern calculated by Match!. 
###   I/Ic calculated by Match!. 
##############################################################################


