##############################################################################
###               Crystal structure data exported by Match!                ###
##############################################################################
###                           Data published by:                           ###
###                                                                        ###
###               COD (Crystallography Open Database)
##############################################################################
data_1011253
_citation_journal_full    'Zeitschrift fuer Kristallographie, Kristallgeometrie, Kristallphysik,Kristallchemie (-144,1977)'
_citation_journal_volume  '92'
_citation_page_first  '161'
_citation_page_last   '173'
_citation_year  '1935'
_citation_title  'Ergebnisse der Strukturbestimmung komplexer Sulfide. I: SnS und PbSnS2'
loop_
_publ_author_name
  'Hofmann W'
_chemical_formula_sum  'S Sn'
_chemical_name_mineral  'Herzenbergite'
_chemical_name_common  'Tin sulfide'
_symmetry_space_group_name_H-M 'P m c n'
_space_group_IT_number 62
_space_group_crystal_system 'orthorhombic'
loop_
_symmetry_equiv_pos_as_xyz
   'x, y, z'
   '-x+0.5, -y+0.5, z+0.5'
   'x+0.5, -y, -z'
   '-x, y+0.5, -z+0.5'
   '-x, -y, -z'
   'x+0.5, y+0.5, -z+0.5'
   '-x+0.5, y, z'
   'x, -y+0.5, z+0.5'
_cell_length_a        3.98000
_cell_length_b        4.33000
_cell_length_c       11.18000
_cell_angle_alpha    90.0000
_cell_angle_beta     90.0000
_cell_angle_gamma    90.0000
_cell_formula_units_Z 4
loop_
_atom_site_label
_atom_site_fract_x
_atom_site_fract_y
_atom_site_fract_z
_atom_site_occupancy
_atom_site_B_iso_or_equiv
sn      0.250   0.115   0.118    1.00000    1.000
s      0.750   0.522   0.150    1.00000    1.000
_cell_measurement_wavelength    1.541874
_cell_measurement_radiation   'x-rays'
_exptl_crystal_density_diffrn    5.197000
loop_
_pd_peak_d_spacing
_pd_peak_intensity
     5.590000          0.15
     4.037745        343.63
     3.423164        601.34
     3.242182        702.37
     2.930219        501.78
     2.834480       1000.00
     2.824579         33.37
     2.795000        657.46
     2.595275          3.09
     2.348270         10.12
     2.303447        462.22
     2.287321         54.87
     2.165000         30.31
     2.125513        206.32
     2.022477        305.17
     2.018873          1.51
     1.990000        249.43
     1.986739        124.40
     1.874896        241.65
     1.874748          0.01
     1.872022        165.78
     1.863333          0.29
     1.800480          5.76
     1.784986         68.72
     1.777575        183.59
     1.720416        145.81
     1.711581         89.36
     1.693991        101.29
     1.687545        114.93
     1.626802         13.60
     1.621091        213.76
     1.572352         13.08
     1.555381         46.44
     1.518181          4.36
     1.498457          1.13
     1.465109         14.24
     1.452689        103.84
     1.448686        136.30
     1.431454         28.44
     1.417240          0.78
     1.412289          2.51
     1.405988         69.24
     1.402358         58.84
     1.397501         44.23
     1.397500         43.74
     1.363521        100.22
     1.360152          0.19
     1.356866         65.09
     1.346982          5.10
     1.345915         23.43
     1.330977          0.10
     1.329948          4.75
     1.318577         23.70
     1.297638         61.28
     1.290812         34.43
     1.285256         44.66
     1.282435          2.56
     1.274985         16.26
     1.268464         27.95
     1.261387         44.91
     1.260377         57.50
     1.237016          0.23
     1.225471         36.60
     1.223065         15.02
     1.220633         80.23
     1.212642         10.88
     1.200810         42.57
     1.198507          5.02
     1.197043          0.87
     1.194056         32.72
     1.174135          1.65
     1.162047         25.57
     1.159994          0.29
     1.155077         37.41
     1.151724          2.39
     1.143694         19.26
     1.143661         40.72
     1.143660         40.61
     1.141055         20.94
     1.126153          6.04
     1.125434         35.05
     1.118000          0.46
     1.114867         23.45
     1.108708          0.98
     1.105741          4.80
     1.103296         30.57
     1.096866          1.13
     1.082500          8.96
     1.082499         11.65
     1.082415         18.56
     1.080727         21.18
     1.079654         47.61
     1.077980          2.78
     1.077461          2.54
     1.077460          6.09
     1.076341         26.19
     1.070850          7.58
     1.062757          0.74
     1.048561          2.99
     1.044552          3.52
     1.040023         54.25
     1.039533          1.69
     1.035528         12.95
     1.034075         18.94
     1.026781         78.65
     1.023882         40.42
     1.011239          2.12
     1.009436         16.00
     1.009367         38.00
##############################################################################
###                            Comments                                    ###
##############################################################################
###   synthetic, precipitated from solution
###   Diffraction pattern calculated by Match!. 
###   I/Ic calculated by Match!. 
###   Space group has been derived from given symmetry operations. 
##############################################################################


