##############################################################################
###               Crystal structure data exported by Match!                ###
##############################################################################
###                           Data published by:                           ###
###                                                                        ###
###               COD (Crystallography Open Database)
##############################################################################
data_2000341
_citation_journal_full    'Acta Crystallographica Section C'
_citation_journal_volume  '48(12)'
_citation_page_first  '2104'
_citation_page_last   '2107'
_citation_year  '1992'
_citation_title  'Structure refinement of Co~3~(OH)~2~(PO~3~OH)~2~ and Co[PO~2~(OH)~2~]~2~.2H~2~O'
loop_
_publ_author_name
  'Effenberger H.'
_chemical_formula_sum  'Co3 H4 O10 P2'
_symmetry_space_group_name_H-M 'P 1 21/c 1'
_space_group_IT_number 14
_space_group_crystal_system 'monoclinic'
loop_
_symmetry_equiv_pos_as_xyz
   'x, y, z'
   '-x, y+0.5, -z+0.5'
   '-x, -y, -z'
   'x, -y+0.5, z+0.5'
_cell_length_a        7.52400
_cell_length_b        7.51200
_cell_length_c        7.39500
_cell_angle_alpha    90.0000
_cell_angle_beta    117.8800
_cell_angle_gamma    90.0000
_cell_formula_units_Z 2
loop_
_atom_site_label
_atom_site_fract_x
_atom_site_fract_y
_atom_site_fract_z
_atom_site_occupancy
_atom_site_B_iso_or_equiv
co      0.000   0.000   0.000    1.00000    0.765
co      0.743   0.275   0.018    1.00000    0.813
p      0.235   0.382   0.236    1.00000    0.679
o      0.183   0.514   0.359    1.00000    1.072
o      0.326   0.471   0.114    1.00000    0.931
o      0.056   0.265   0.106    1.00000    1.064
o      0.410   0.255   0.391    1.00000    1.096
o      0.746   0.369   0.276    1.00000    0.884
h      0.382   0.196   0.459    1.00000    4.025
h      0.664   0.427   0.253    1.00000    0.789
_cell_measurement_wavelength    1.541874
_cell_measurement_radiation   'x-rays'
_exptl_crystal_density_diffrn    3.620000
loop_
_pd_peak_d_spacing
_pd_peak_intensity
     6.650681        273.72
     4.979544        390.61
     4.931139        100.54
     4.866761         20.79
     3.756000         62.33
     3.696160         22.89
     3.425012        662.22
     3.360856        121.94
     3.325341        385.67
     3.316446       1000.00
     3.270483        117.16
     3.268327        140.13
     3.256655        347.92
     3.237904          4.70
     3.194438         36.94
     3.040733          0.08
     2.996958         25.20
     2.939681          5.60
     2.687925          2.43
     2.656579        149.94
     2.634482        136.25
     2.505878         25.68
     2.489772        123.54
     2.465569         72.31
     2.439664         76.43
     2.433380         64.96
     2.393302        102.06
     2.377107         56.86
     2.356628         20.69
     2.343408        136.56
     2.338306        157.02
     2.331336         31.52
     2.320361        187.91
     2.316047         13.55
     2.295903        117.77
     2.216894         34.73
     2.126237        209.49
     2.098810         91.58
     2.095431         59.78
     2.092634          9.06
     2.084536          6.91
     2.083785          2.75
     2.073069        125.89
     2.070684          5.50
     2.048882         37.24
     2.045953          8.66
     2.042993         32.81
     2.029127         36.95
     2.000311          0.21
     1.987695          0.04
     1.970713          2.27
     1.924140          3.46
     1.909153          4.19
     1.884715         19.59
     1.878970         94.45
     1.878000         81.81
     1.863965          3.12
     1.852562          7.10
     1.848080         24.47
     1.822813         10.30
     1.807327         13.18
     1.804983          0.03
     1.801771         44.43
     1.798553          0.23
     1.794570         26.09
     1.793108          0.58
     1.780318         11.70
     1.777929          0.04
     1.776658         21.52
     1.771259          2.92
     1.768373         34.85
     1.762738          7.75
     1.747405         27.06
     1.745560          2.13
     1.744109         66.56
     1.736888          1.65
     1.735703          0.76
     1.721322          2.11
     1.712506        245.67
     1.687751         18.60
     1.680428          5.88
     1.679908          0.43
     1.674278          0.19
     1.662670         91.56
     1.661364          2.49
     1.659848        114.16
     1.658223        129.83
     1.646959         18.98
     1.644060         21.70
     1.643713         32.66
     1.635241          7.63
     1.634164         35.56
     1.628327        193.25
     1.623382          1.99
     1.622254         68.80
     1.618952         32.67
     1.618167         55.43
     1.611447         11.12
     1.599919          0.19
     1.597219        109.99
     1.596817          7.43
     1.562295         29.38
     1.531825         10.43
     1.525712          0.81
     1.520367          5.36
     1.506873          1.36
     1.502896         16.03
     1.502805         26.74
     1.501271          0.19
     1.500937         56.12
     1.498479          3.44
     1.497591         18.35
     1.494256          9.30
     1.489212          2.46
     1.488154         25.84
     1.487014          8.66
     1.486949          2.92
     1.481642          0.66
     1.478811         20.37
     1.476711         25.38
     1.472160         18.31
     1.469841          5.80
     1.465473          9.70
     1.464222          1.43
     1.462506         13.40
     1.457862         53.44
     1.457306         16.34
     1.452942         27.72
     1.446208         10.31
     1.444475         14.75
     1.438702         17.26
     1.437996         20.65
     1.432949         18.28
     1.430163          0.95
     1.422529          1.89
     1.418400          8.51
     1.415961         13.58
     1.413021         14.48
     1.412758          8.31
     1.408550          8.95
     1.401093          1.73
     1.399524          4.10
     1.395043         31.37
     1.394040          9.24
     1.391814         15.14
     1.389610          6.45
     1.385124          0.18
     1.381407          0.81
     1.377340          9.55
     1.371944         16.02
     1.369145          1.47
     1.368513          4.42
     1.368079          2.46
     1.365079          3.45
     1.364927          0.06
     1.359541          2.86
     1.358223         10.32
     1.346595          2.75
     1.346040          3.22
     1.343963         18.46
     1.343514          0.01
     1.330136          4.77
     1.328289        130.05
     1.323343          0.01
     1.318814          5.75
     1.317241          7.08
     1.312733         21.11
     1.311573          1.72
     1.310108          0.24
     1.309762          5.97
     1.306706         10.26
     1.304708         16.36
     1.302291          0.20
     1.296892          3.80
     1.293425          2.99
     1.291114         20.29
     1.288553          0.92
     1.287972          3.56
     1.287585          1.09
     1.287441          7.52
     1.285261          0.91
     1.279281          3.93
     1.278557          0.57
     1.277612          0.19
     1.275137         23.17
     1.270114          0.52
     1.264541          7.25
     1.264457         15.43
     1.262436          0.11
     1.259682          0.02
     1.259204         17.73
     1.253835          5.72
     1.252939         10.74
     1.252000          0.66
     1.249478         11.65
     1.247456         15.84
     1.244978          2.14
     1.244886          3.19
     1.243700         20.19
     1.240961          0.15
     1.236869          1.19
     1.235867          0.24
     1.235586          8.76
     1.234678          8.80
     1.232785          0.06
     1.232053          3.03
     1.231260          3.72
     1.230388          4.33
     1.229648          3.38
     1.228631          4.89
     1.227647          7.30
     1.224367          0.39
     1.222700         21.92
     1.219832          5.47
     1.217325          0.44
     1.216690          8.05
     1.216208          4.10
     1.215809          9.19
     1.213918          7.45
     1.209691          0.15
     1.205642          0.01
     1.204060          5.10
     1.201650          6.51
     1.196651          2.98
     1.190576          7.43
     1.190407          4.42
     1.188553         44.74
     1.188304          3.33
     1.187813          4.13
     1.187028          0.63
     1.185818          4.67
     1.184177          0.29
     1.183715          0.31
     1.183538          7.41
     1.178314         16.53
     1.174686          8.74
     1.173676          1.21
     1.173414          2.57
     1.172640          1.17
     1.171704          8.32
     1.170680          1.35
     1.169153          0.04
     1.168019          1.36
     1.166866          4.01
     1.165776          3.16
     1.165668          2.63
     1.165574          0.56
     1.165091          6.33
     1.161842          6.83
     1.160823          1.18
     1.160181          4.35
     1.159396          0.18
     1.158890         10.83
     1.158023         37.43
     1.155152          0.92
     1.151792          8.26
     1.151600         13.23
     1.151080          0.02
     1.149170          0.02
     1.147952          0.70
     1.145304          0.01
     1.144967          1.41
     1.143636          2.44
     1.142085          1.68
     1.141787          0.08
     1.141671          1.79
     1.138626          4.52
     1.138152          0.27
     1.132925          6.32
     1.132221         16.10
     1.129617          1.15
     1.127835          0.10
     1.127272          0.01
     1.122997          0.13
     1.121671          5.20
     1.120495          2.64
     1.120285          0.05
     1.119991          1.70
     1.117960          0.91
     1.117827          2.60
     1.114724          0.60
     1.113886          1.38
     1.113408          4.96
     1.113205         14.14
     1.111903          5.24
     1.111147          8.78
     1.108447          5.21
     1.106010          1.03
     1.105482          0.01
     1.101305          6.64
     1.096628          0.19
     1.096573          4.09
     1.095506         23.13
     1.094806          4.68
     1.094343          3.03
     1.093635          0.48
     1.090161          0.85
     1.089442          1.09
     1.086283          3.21
     1.085773          3.47
     1.085552         11.87
     1.085455          0.82
     1.082226          2.16
     1.081055          0.86
     1.079301          1.60
     1.078163          3.69
     1.073524          0.47
     1.072955          0.33
     1.072609          5.31
     1.070163         17.62
     1.069685          0.01
     1.069191          0.30
     1.066062          8.94
     1.064813          2.39
     1.063356          0.09
     1.063119         33.23
     1.061958          0.55
     1.059439          0.00
     1.059246          1.29
     1.059002         14.38
     1.058967         18.57
     1.058317          0.89
     1.056702          0.09
     1.056434          1.64
     1.056341          0.91
     1.055487          2.75
     1.054274          3.17
     1.053953          8.25
     1.053268          2.94
     1.052092         10.44
     1.050029          6.61
     1.049405         15.92
     1.049217          3.75
     1.048918          0.27
     1.047715         14.53
     1.046507          2.42
     1.046317          0.01
     1.045866          0.00
     1.044724          0.30
     1.043730         14.20
     1.042268          0.44
     1.042099          2.03
     1.041892          0.00
     1.041528          1.91
     1.040380          2.31
     1.040273         13.36
     1.039105          6.37
     1.037300         11.92
     1.036535         14.62
     1.035342          7.59
     1.033766          3.49
     1.033703          6.64
     1.033048          3.30
     1.032767          0.05
     1.031893          1.37
     1.030584         10.66
     1.030152         10.49
     1.029688         17.16
     1.028777          2.26
     1.026532          5.68
     1.025554          0.08
     1.024810          8.93
     1.024666          4.02
     1.024441         10.36
     1.023952          0.90
     1.022976          2.72
     1.021863          6.46
     1.021826          0.73
     1.021497          5.65
     1.021279          0.68
     1.020836          0.25
     1.019800          4.01
     1.019588          0.17
     1.017274          0.09
     1.015672          2.76
     1.014759          0.19
     1.014564         11.37
     1.013578          0.32
     1.011825          8.63
     1.011680          0.72
     1.010301          1.12
     1.008045          6.33
##############################################################################
###                            Comments                                    ###
##############################################################################
###   Diffraction pattern calculated by Match!. 
###   I/Ic calculated by Match!. 
##############################################################################


