##############################################################################
###               Crystal structure data exported by Match!                ###
##############################################################################
###                           Data published by:                           ###
###                                                                        ###
###               COD (Crystallography Open Database)
##############################################################################
data_9009667
_citation_journal_full    'Journal of Applied Crystallography'
_citation_journal_volume  '38'
_citation_page_first  '158'
_citation_page_last   '167'
_citation_year  '2005'
_citation_title  'Comparative evaluation of the March and generalized spherical harmonicpreferred orientation models using X-ray diffraction data for molybditeand calcite powdersNote: March modelLocality: synthetic'
loop_
_publ_author_name
  'Sitepu H.'
  'O?Connor B H'
  'Li D.'
_chemical_formula_sum  'C Ca O3'
_chemical_name_mineral  'Calcite'
_symmetry_space_group_name_H-M 'R -3 c'
_space_group_IT_number 167
_space_group_crystal_system 'trigonal (hexagonal axes)'
loop_
_symmetry_equiv_pos_as_xyz
   'x, y, z'
   'x+0.66667, y+0.33333, z+0.33333'
   'x+0.33333, y+0.66667, z+0.66667'
   '-y, x-y, z'
   '-y+0.66667, x-y+0.33333, z+0.33333'
   '-y+0.33333, x-y+0.66667, z+0.66667'
   '-x+y, -x, z'
   '-x+y+0.66667, -x+0.33333, z+0.33333'
   '-x+y+0.33333, -x+0.66667, z+0.66667'
   'x-y, -y, -z+0.5'
   'x-y+0.66667, -y+0.33333, -z+0.83333'
   'x-y+0.33333, -y+0.66667, -z+0.16667'
   '-x, -x+y, -z+0.5'
   '-x+0.66667, -x+y+0.33333, -z+0.83333'
   '-x+0.33333, -x+y+0.66667, -z+0.16667'
   'y, x, -z+0.5'
   'y+0.66667, x+0.33333, -z+0.83333'
   'y+0.33333, x+0.66667, -z+0.16667'
   '-x, -y, -z'
   '-x+0.66667, -y+0.33333, -z+0.33333'
   '-x+0.33333, -y+0.66667, -z+0.66667'
   'y, -x+y, -z'
   'y+0.66667, -x+y+0.33333, -z+0.33333'
   'y+0.33333, -x+y+0.66667, -z+0.66667'
   'x-y, x, -z'
   'x-y+0.66667, x+0.33333, -z+0.33333'
   'x-y+0.33333, x+0.66667, -z+0.66667'
   '-x+y, y, z+0.5'
   '-x+y+0.66667, y+0.33333, z+0.83333'
   '-x+y+0.33333, y+0.66667, z+0.16667'
   'x, x-y, z+0.5'
   'x+0.66667, x-y+0.33333, z+0.83333'
   'x+0.33333, x-y+0.66667, z+0.16667'
   '-y, -x, z+0.5'
   '-y+0.66667, -x+0.33333, z+0.83333'
   '-y+0.33333, -x+0.66667, z+0.16667'
_cell_length_a        4.99100
_cell_length_b        4.99100
_cell_length_c       17.06800
_cell_angle_alpha    90.0000
_cell_angle_beta     90.0000
_cell_angle_gamma   120.0000
loop_
_atom_site_label
_atom_site_fract_x
_atom_site_fract_y
_atom_site_fract_z
_atom_site_occupancy
_atom_site_B_iso_or_equiv
ca      0.000   0.000   0.000    1.00000    1.223
c      0.000   0.000   0.250    1.00000    1.398
o      0.245   0.000   0.250    1.00000    1.398
_cell_measurement_wavelength    1.541874
_cell_measurement_radiation   'x-rays'
_exptl_crystal_density_diffrn    2.708000
loop_
_pd_peak_d_spacing
_pd_peak_intensity
     3.855960         51.83
     3.036599       1000.00
     2.844667         20.36
     2.495500        147.86
     2.285323        155.03
     2.095032        136.45
     1.927980         57.13
     1.913134        192.98
     1.875957        173.24
     1.626256         38.42
     1.604552         98.16
     1.587512          6.69
     1.525688         43.31
     1.518299         22.31
     1.509917         23.33
     1.473622         23.23
     1.440778         49.84
     1.422333         34.38
     1.357210         15.05
     1.339452         20.94
     1.297091         22.20
     1.285320          8.64
     1.247750          9.88
     1.235713         19.90
     1.218783          0.13
     1.195853          0.03
     1.187144          5.66
     1.180193         24.56
     1.173362          2.33
     1.154117         38.71
     1.142662         20.81
     1.131079          0.02
     1.125062          5.72
     1.075805          0.02
     1.072024          0.01
     1.061842          7.87
     1.047516         26.33
     1.045115         26.99
     1.042369          0.06
     1.035675         13.81
     1.035320          3.54
     1.023393          3.83
     1.012200         23.58
##############################################################################
###                            Comments                                    ###
##############################################################################
###   Diffraction pattern calculated by Match!. 
###   I/Ic calculated by Match!. 
##############################################################################


