##############################################################################
###               Crystal structure data exported by Match!                ###
##############################################################################
###                           Data published by:                           ###
###                                                                        ###
###               COD (Crystallography Open Database)
##############################################################################
data_1531398
_citation_journal_full    'Zeitschrift fuer Anorganische und Allgemeine Chemie'
_citation_journal_volume  '627'
_citation_page_first  '1357'
_citation_page_last   '1364'
_citation_year  '2001'
_citation_title  'Neue Erdalkalimetall-Phosphide und -Arsenide des Cobalts'
loop_
_publ_author_name
  'Hellmann A.'
  'Mewis A.'
_chemical_formula_sum  'Co6 Mg P4'
_chemical_name_common  'Mg Co6 P4'
_symmetry_space_group_name_H-M 'P -6 m 2'
_space_group_IT_number 187
_space_group_crystal_system 'hexagonal'
loop_
_symmetry_equiv_pos_as_xyz
   'x, y, z'
   '-x+y, -x, -z'
   '-y, x-y, z'
   'x, y, -z'
   '-x+y, -x, z'
   '-y, x-y, -z'
   '-y, -x, -z'
   '-x+y, y, -z'
   'x, x-y, -z'
   '-x+y, y, z'
   'x, x-y, z'
   '-y, -x, z'
_cell_length_a        6.60900
_cell_length_b        6.60900
_cell_length_c        3.38000
_cell_angle_alpha    90.0000
_cell_angle_beta     90.0000
_cell_angle_gamma   120.0000
_cell_formula_units_Z 1
loop_
_atom_site_label
_atom_site_fract_x
_atom_site_fract_y
_atom_site_fract_z
_atom_site_occupancy
_atom_site_B_iso_or_equiv
co      0.535   0.465   0.000    1.00000    1.000
co      0.200   0.800   0.500    1.00000    1.000
mg      0.000   0.000   0.000    1.00000    1.000
p      0.815   0.185   0.500    1.00000    1.000
p      0.333   0.667   0.000    1.00000    1.000
_cell_measurement_wavelength    1.541874
_cell_measurement_radiation   'x-rays'
_exptl_crystal_density_diffrn    6.517000
loop_
_pd_peak_d_spacing
_pd_peak_intensity
     5.723562        336.40
     3.380000          9.75
     3.304500         39.40
     2.910400        212.83
     2.861781         32.64
     2.362876        108.85
     2.184077       1000.00
     2.163303        228.95
     1.907854        257.18
     1.822063        557.72
     1.690000        201.98
     1.661450         41.16
     1.652250        218.83
     1.620821         16.18
     1.587431          2.44
     1.504644          5.57
     1.484389          2.85
     1.455200          6.36
     1.436854         29.55
     1.430891          3.20
     1.331785         71.67
     1.317679         35.00
     1.313075         48.74
     1.265053         96.53
     1.248984         19.80
     1.223960         84.71
     1.181438        113.35
     1.171556         16.48
     1.157045          1.26
     1.144712         30.02
     1.126667          0.22
     1.105453          5.70
     1.101500         28.36
     1.092038          2.45
     1.084220        116.04
     1.081652          4.08
     1.066388          5.90
     1.048348         58.57
     1.047290          3.88
     1.036886         40.69
     1.030187         14.84
     1.027982          7.20
##############################################################################
###                            Comments                                    ###
##############################################################################
###   Diffraction pattern calculated by Match!. 
###   I/Ic calculated by Match!. 
##############################################################################


