##############################################################################
###               Crystal structure data exported by Match!                ###
##############################################################################
###                           Data published by:                           ###
###                                                                        ###
###               COD (Crystallography Open Database)
##############################################################################
data_9013574
_citation_journal_full    'American Mineralogist'
_citation_journal_volume  '94'
_citation_page_first  '451'
_citation_page_last   '460'
_citation_year  '2009'
_citation_title  'Molecular conformation and anion configuration variations for As4S4 andAs4Se4 in an anion-substituted solid solution Locality: synthetic Note:S1Se1-6'
loop_
_publ_author_name
  'Kyono A.'
_chemical_formula_sum  'As S0.607 Se0.392'
_chemical_name_mineral  'Realgar'
_symmetry_space_group_name_H-M 'P 1 21/n 1'
_space_group_IT_number 14
_space_group_crystal_system 'monoclinic'
loop_
_symmetry_equiv_pos_as_xyz
   'x, y, z'
   '-x+0.5, y+0.5, -z+0.5'
   '-x, -y, -z'
   'x+0.5, -y+0.5, z+0.5'
_cell_length_a        9.44610
_cell_length_b       13.64290
_cell_length_c        6.65260
_cell_angle_alpha    90.0000
_cell_angle_beta    106.5500
_cell_angle_gamma    90.0000
loop_
_atom_site_label
_atom_site_fract_x
_atom_site_fract_y
_atom_site_fract_z
_atom_site_occupancy
_atom_site_B_iso_or_equiv
as      0.119   -0.020   0.760    1.00000    2.092
as      0.424   0.140   0.858    1.00000    1.973
as      0.322   0.129   0.177    1.00000    2.092
as      0.040   0.161   0.709    1.00000    2.171
s      0.343   -0.009   0.697    0.56100    2.337
se      0.343   -0.009   0.697    0.43900    2.337
s      0.214   -0.025   0.118    0.53200    2.179
se      0.214   -0.025   0.118    0.46800    2.179
s      0.241   0.229   0.640    0.73200    2.518
se      0.241   0.229   0.640    0.26800    2.518
s      0.109   0.214   0.055    0.60500    2.400
se      0.109   0.214   0.055    0.39500    2.400
_cell_measurement_wavelength    1.541874
_cell_measurement_radiation   'x-rays'
_exptl_crystal_density_diffrn    4.054000
loop_
_pd_peak_d_spacing
_pd_peak_intensity
     7.544340         67.76
     6.821450         91.72
     6.094729        366.15
     5.777050        560.14
     5.564698        263.23
     5.448374       1000.00
     4.658422        110.35
     4.629744         65.44
     4.544915         13.83
     4.527381         34.64
     4.384181          0.68
     4.296961         11.12
     4.116318        156.29
     4.063885         13.74
     3.830766         28.32
     3.772170        124.86
     3.702582         57.71
     3.648188         73.96
     3.644817          6.65
     3.410725         19.06
     3.244303          6.52
     3.224148         97.30
     3.208478        394.84
     3.191798        440.95
     3.188496        437.51
     3.186539          0.92
     3.131142          7.82
     3.104829        130.29
     3.089560        443.26
     3.047365         11.44
     3.013260        125.23
     3.007569        182.31
     2.983855        245.07
     2.976362          0.21
     2.974076        209.38
     2.953969        493.36
     2.946997         23.74
     2.888525        159.01
     2.814354        229.15
     2.782349         32.99
     2.760139        158.06
     2.746013        566.53
     2.724187        182.79
     2.714984        236.77
     2.680475          0.49
     2.676371         96.94
     2.658747         25.56
     2.612539        180.88
     2.610727         74.50
     2.566786         19.30
     2.555579         52.33
     2.545692        196.50
     2.531543          0.02
     2.514780        114.38
     2.508589          0.02
     2.490394        179.59
     2.469619         69.97
     2.430125         88.10
     2.422324         92.64
     2.378336         89.81
     2.365943          6.09
     2.363119         12.11
     2.350702          0.88
     2.336966         18.49
     2.329211          2.01
     2.322122         50.47
     2.320901          5.46
     2.314872         17.09
     2.306569          2.44
     2.289795          1.08
     2.282252          0.48
     2.273817        170.03
     2.272457          2.73
     2.263691         25.28
     2.260309         51.45
     2.251379         71.04
     2.233159         27.15
     2.226269         32.42
     2.214511        168.84
     2.205345        109.34
     2.192090         42.73
     2.185902         61.94
     2.170253          1.53
     2.158764        102.78
     2.150395          7.31
     2.150281        136.61
     2.148480         45.60
     2.141740          5.15
     2.132236         37.05
     2.130383         47.78
     2.107520         11.05
     2.106299          0.40
     2.100323         19.28
     2.096910          0.17
     2.091393          1.77
     2.074374         60.28
     2.073111          0.15
     2.063293         11.72
     2.062981          6.00
     2.058159         54.68
     2.045172          7.01
     2.040951          3.00
     2.032791          0.47
     2.031942         20.96
     2.031576         35.24
     2.029415          2.21
     2.026508          2.57
     2.024081         18.88
     2.011866         13.24
     2.009420         10.45
     2.000309         63.32
     1.990996         22.17
     1.963967         10.38
     1.950189          0.15
     1.949534          0.81
     1.947061          6.48
     1.944123          1.31
     1.944013         52.36
     1.938057          4.48
     1.929929         31.85
     1.925683          4.26
     1.915383          9.66
     1.914936          3.41
     1.905348         17.14
     1.889219         17.64
     1.887481         24.71
     1.886085          8.75
     1.878946          0.05
     1.875672         52.93
     1.874483        140.10
     1.871362         23.44
     1.868180        160.79
     1.863878          6.61
     1.860737         20.30
     1.857355          2.56
     1.856378          2.37
     1.854899          6.58
     1.851291         99.19
     1.835354          0.99
     1.831314        154.67
     1.831009          1.61
     1.824094         23.01
     1.822408          5.70
     1.820683        200.88
     1.816125         10.90
     1.815363          6.45
     1.803994         41.25
     1.803168        131.86
     1.796307          7.80
     1.796078          2.98
     1.795206          2.13
     1.791826         37.57
     1.790156          0.07
     1.782903         67.92
     1.779807         19.38
     1.776382         16.08
     1.768989          0.27
     1.765203         19.91
     1.757618         27.07
     1.751130          8.53
     1.750322         18.10
     1.745408         75.95
     1.744660         26.41
     1.742191          3.50
     1.728581         15.09
     1.719472        132.31
     1.709090         77.09
     1.705363         61.22
     1.702102          1.51
     1.701971          9.11
     1.699017         69.82
     1.692981         41.52
     1.692552        163.13
     1.688402        105.98
     1.683177         33.34
     1.682459          2.19
     1.682411          3.06
     1.680530          5.83
     1.676874         41.84
     1.675898         33.28
     1.675136          0.14
     1.672776         39.72
     1.662927         12.21
     1.659068         46.44
     1.652631         70.89
     1.648403         13.08
     1.647470          2.74
     1.646935          5.03
     1.642284          8.10
     1.641900         31.53
     1.640551          3.89
     1.638592         10.01
     1.637300         28.16
     1.635856         58.24
     1.629511          0.47
     1.627245          0.02
     1.626900          0.48
     1.625985          3.66
     1.624691          5.18
     1.622152          9.80
     1.614558         24.67
     1.613681         25.03
     1.613292         58.64
     1.612074          3.36
     1.606085          0.03
     1.604239          7.82
     1.600878          0.97
     1.600253          0.30
     1.600091          1.59
     1.599474          7.39
     1.595899         11.76
     1.594248          2.02
     1.594103         21.18
     1.594042          7.64
     1.593269         76.51
     1.586448         35.73
     1.586250          0.55
     1.586117          0.19
     1.583473          5.32
     1.581672          5.29
     1.580482         17.53
     1.577894          0.29
     1.572672         17.53
     1.568805          6.92
     1.565571         34.28
     1.562024          0.01
     1.558588          0.23
     1.557576         31.97
     1.553247          6.71
     1.553174          3.94
     1.552807          2.18
     1.552415          5.98
     1.551811          7.85
     1.544780          0.67
     1.543248          3.44
     1.541575          4.89
     1.534972         23.91
     1.533468          0.08
     1.532187         58.90
     1.531063          2.64
     1.529983          4.46
     1.529940         10.24
     1.523682         60.28
     1.520777          0.01
     1.519382          3.82
     1.516764          2.99
     1.514972         21.94
     1.514268         33.42
     1.512794         62.72
     1.509386          5.71
     1.509127          1.66
     1.508868          1.72
     1.506630          3.70
     1.505209         14.43
     1.504478          6.23
     1.503785         23.63
     1.501541          3.98
     1.499978          0.01
     1.495072          2.93
     1.493018          6.45
     1.491927         31.90
     1.490922         19.31
     1.489912         36.48
     1.488181          0.18
     1.487176          0.12
     1.487038         15.01
     1.486392          3.37
     1.486045         42.70
     1.484753          8.52
     1.480020          2.68
     1.476984         70.89
     1.476978          1.24
     1.474783          2.45
     1.473498         10.70
     1.473225          0.37
     1.471060          1.82
     1.468659         10.86
     1.467732         24.66
     1.466780         51.81
     1.463952         10.55
     1.463059          5.84
     1.462694         16.23
     1.461394          0.60
     1.457432         29.39
     1.453106          3.68
     1.452268          5.03
     1.452233         13.10
     1.446636          1.67
     1.444746          4.50
     1.444262          5.84
     1.440623          0.51
     1.437444         42.29
     1.436548         20.25
     1.432320          0.01
     1.431235          2.35
     1.430283          3.39
     1.427932          4.42
     1.426416          0.27
     1.424531         14.17
     1.423548          9.27
     1.417590         17.41
     1.417003          9.83
     1.416575          1.18
     1.413513          2.57
     1.408177          5.77
     1.407177          1.83
     1.406433          3.03
     1.406019          0.30
     1.405229          6.79
     1.404753          4.18
     1.403976         13.45
     1.403298          9.94
     1.396785          0.08
     1.395965          0.07
     1.391174          4.18
     1.387899          0.78
     1.385197          0.20
     1.383477          2.09
     1.383386          1.16
     1.383145          0.00
     1.382191         30.41
     1.381287          2.83
     1.380070          0.95
     1.378807         37.89
     1.378335          1.53
     1.378112          8.66
     1.376512          8.45
     1.375884          5.34
     1.375823          0.24
     1.373006          6.13
     1.372842          0.41
     1.372217          1.44
     1.372106          0.03
     1.369035          4.55
     1.364290          1.32
     1.362351          0.01
     1.362093          5.83
     1.360896          0.01
     1.360535          0.86
     1.357492          1.78
     1.357230          8.13
     1.356517          2.05
     1.355362          2.36
     1.354628          0.35
     1.351153          2.28
     1.349141          0.07
     1.349063          0.22
     1.348033          4.45
     1.344531          4.62
     1.344292         16.97
     1.343282          0.08
     1.342612          1.92
     1.340682          2.66
     1.340237          0.60
     1.338185         32.11
     1.338049          0.02
     1.336790          0.02
     1.334727          4.05
     1.334101         12.53
     1.332446          4.80
     1.331342          4.25
     1.330319          9.19
     1.330188         10.23
     1.329822          0.18
     1.329373          0.12
     1.327005          0.03
     1.326654          0.91
     1.325967          1.07
     1.325090          0.91
     1.324230          8.40
     1.323109         24.00
     1.322615          0.16
     1.321918          1.09
     1.320599          0.72
     1.319151          0.03
     1.316999          0.04
     1.315757          1.85
     1.315063          5.48
     1.313781          3.17
     1.313714          0.01
     1.310905          0.00
     1.309680          1.04
     1.309442          0.28
     1.308654          7.21
     1.308428          1.99
     1.306269          4.56
     1.306172          0.72
     1.305904          9.70
     1.305364          2.32
     1.305207          0.01
     1.304204          0.88
     1.300889          4.97
     1.299075          0.00
     1.295601          0.28
     1.293269          1.87
     1.293119          2.58
     1.291943          3.47
     1.291917          8.95
     1.289798         12.91
     1.289359          1.69
     1.287762          0.21
     1.287723          9.62
     1.284344          1.59
     1.283572          0.17
     1.283393          0.00
     1.281593          0.07
     1.279133          1.21
     1.278521          5.21
     1.277789          2.79
     1.276981          4.64
     1.276922          3.52
     1.274680          0.34
     1.272960          0.06
     1.272943          0.90
     1.272846          0.00
     1.272098          8.12
     1.270890          8.14
     1.269862          4.35
     1.269160          1.05
     1.268164          0.97
     1.265897          0.22
     1.265772         12.80
     1.265019          0.14
     1.263918          2.86
     1.263332          1.40
     1.262903          0.10
     1.261797          0.36
     1.260443          0.30
     1.259550          0.08
     1.259509          0.01
     1.257390          0.58
     1.256639          0.68
     1.255826          1.75
     1.254559         10.34
     1.254295          1.19
     1.254220          0.38
     1.253674          2.34
     1.253667          2.05
     1.251442          1.22
     1.250884          1.18
     1.250849          0.96
     1.248539          0.12
     1.248133          6.07
     1.248027          1.42
     1.247953          2.52
     1.246977         18.18
     1.246268          0.46
     1.246020          9.88
     1.245197          0.01
     1.244185          5.74
     1.244098          0.49
     1.243187          0.58
     1.242181          0.70
     1.241813          0.72
     1.241524          7.70
     1.240574          0.70
     1.239538          0.33
     1.235149          5.26
     1.234810          7.49
     1.234194          0.02
     1.233997          0.00
     1.233545          3.03
     1.230804          0.28
     1.230040         12.10
     1.229783          0.70
     1.228790          2.49
     1.228589         17.00
     1.228018          0.21
     1.227580          4.57
     1.223930          1.64
     1.223764          0.31
     1.222447          3.04
     1.221722          0.01
     1.218946          0.01
     1.218834         10.04
     1.217856          0.22
     1.217451          5.40
     1.216063          0.93
     1.215998          0.16
     1.215354          3.22
     1.215063          2.46
     1.214939         12.96
     1.214109          6.55
     1.213033          0.56
     1.211196          0.27
     1.211162          1.41
     1.210624          4.44
     1.209886          6.66
     1.209476          0.26
     1.207189          3.79
     1.206059          4.05
     1.202728          0.11
     1.201951          1.13
     1.200389          0.00
     1.200049          5.90
     1.199990         12.83
     1.199939          1.05
     1.199210          0.66
     1.198899          0.39
     1.198081          0.53
##############################################################################
###                            Comments                                    ###
##############################################################################
###   Diffraction pattern calculated by Match!. 
###   I/Ic calculated by Match!. 
##############################################################################


