##############################################################################
###               Crystal structure data exported by Match!                ###
##############################################################################
###                           Data published by:                           ###
###                                                                        ###
###               COD (Crystallography Open Database)
##############################################################################
data_4124070
_citation_journal_full    'Journal of the American Chemical Society'
_citation_journal_volume  '126'
_citation_page_first  '9769'
_citation_page_last   '9775'
_citation_year  '2004'
_citation_title  'Chemical evaluation of hypothetical uninodal zeolites'
loop_
_publ_author_name
  'Foster M.D.'
  'Bell R.G.'
  'Friedrichs O.D.'
  'Klinowski J.'
  'Paz F.A.A.'
_chemical_formula_sum  'O2 Si'
_chemical_name_common  'Silica'
_symmetry_space_group_name_H-M 'P b a n'
_space_group_IT_number 50
_space_group_crystal_system 'orthorhombic'
loop_
_symmetry_equiv_pos_as_xyz
   'x, y, z'
   '-x+0.5, -y+0.5, -z'
   '-x, -y, z'
   'x, -y, -z'
   '-x, y, -z'
   'x+0.5, y+0.5, -z'
   '-x+0.5, y+0.5, z'
   'x+0.5, -y+0.5, z'
_cell_length_a        9.10822
_cell_length_b        9.53351
_cell_length_c        3.66611
_cell_angle_alpha    90.0000
_cell_angle_beta     90.0000
_cell_angle_gamma    90.0000
_cell_formula_units_Z 8
loop_
_atom_site_label
_atom_site_fract_x
_atom_site_fract_y
_atom_site_fract_z
_atom_site_occupancy
_atom_site_B_iso_or_equiv
o      0.233   0.500   0.500    1.00000    1.000
o      0.365   0.500   0.000    1.00000    1.000
si      0.160   0.116   0.337    1.00000    1.000
o      0.500   0.654   0.500    1.00000    1.000
o      0.250   0.250   0.500    1.00000    1.000
_cell_measurement_wavelength    1.541874
_cell_measurement_radiation   'x-rays'
_exptl_crystal_density_diffrn    2.507000
loop_
_pd_peak_d_spacing
_pd_peak_intensity
     6.585703       1000.00
     4.766755         37.90
     4.554110        209.83
     3.666110        255.18
     3.292851          9.93
     3.203230         12.03
     3.000458         43.29
     2.906031         24.58
     2.892917        105.03
     2.855757         42.95
     2.768532        181.10
     2.735658         91.11
     2.449765          1.60
     2.383378          6.00
     2.321943         87.01
     2.277055          0.40
     2.271017          2.00
     2.195234          2.20
     2.124095         59.23
     2.111673         10.55
     2.099342          1.81
     2.054662         13.84
     1.998227         11.69
     1.951808          2.66
     1.934314         26.90
     1.895687         19.34
     1.883402         11.80
     1.866249          4.08
     1.833055          7.56
     1.829833         19.35
     1.792363          0.83
     1.789273          0.62
     1.765926          0.82
     1.710911          0.45
     1.700476          0.23
     1.681503         36.38
     1.674054         18.69
     1.669148          0.04
     1.663157         10.36
     1.652293         17.45
     1.646426         13.97
     1.614688         16.57
     1.607982          3.21
     1.601615          0.45
     1.588918          0.25
     1.585738          7.80
     1.580399         10.69
     1.564242          0.11
     1.548388          6.12
     1.543467         31.66
     1.518037          8.43
     1.501920         29.35
     1.500229          2.14
     1.499315         18.30
     1.490534          0.57
     1.477710         22.13
     1.457882          0.71
     1.453015         17.91
     1.451293          4.03
     1.446459          0.44
     1.439558         17.26
     1.434872          0.93
     1.427878          9.77
     1.412127          7.02
     1.407027         12.26
     1.402553          0.93
     1.388472          2.87
     1.387617          0.72
     1.384266         21.68
     1.367829          2.35
     1.357899          3.08
     1.346955          4.01
     1.346205          0.87
     1.345517          0.11
     1.317141          2.55
     1.314218          0.30
     1.310650          0.02
     1.307743          3.31
     1.303041          0.35
     1.302442          7.59
     1.289222         12.46
     1.283136          0.78
     1.280406          0.80
     1.280382         23.20
     1.269089          3.58
     1.264322          0.42
     1.247107         15.02
     1.242631          1.05
     1.239567          0.31
     1.229291         10.20
     1.227793          4.41
     1.224882          1.27
     1.222037          1.69
     1.216212          2.33
     1.211643          4.44
     1.208783         22.39
     1.204145          0.83
     1.201526          3.57
     1.200641          2.60
     1.196952          1.76
     1.191689         10.70
     1.190343          8.97
     1.187567          5.81
     1.183755          1.27
     1.180282          0.54
     1.176865          0.73
     1.173883          0.05
     1.171340          0.02
     1.169165          2.39
     1.160971          0.14
     1.160471          0.39
     1.152872          4.80
     1.145684          0.00
     1.144016          3.41
     1.142920          1.73
     1.138528          1.07
     1.138242          9.13
     1.135921          0.49
     1.135508          0.00
     1.133318          3.62
     1.131768          0.01
     1.129808          0.18
     1.125719         16.88
     1.124646          1.32
     1.116507          0.18
     1.113593          5.10
     1.107379          0.00
     1.106433          0.03
     1.102889          0.00
     1.099775          3.85
     1.097617          0.00
     1.097259          0.48
     1.090780          0.07
     1.090381          0.20
     1.087428          6.85
     1.087302          0.44
     1.085424          0.42
     1.080299          4.07
     1.079760          0.00
     1.076770         12.27
     1.074764          0.60
     1.069967          0.01
     1.069640          0.02
     1.067743          3.68
     1.063016          6.63
     1.062047          0.20
     1.061757          0.03
     1.060074          1.15
     1.057694          9.94
     1.055836          0.86
     1.054525          0.32
     1.052187          1.36
     1.051501          0.01
     1.050307          0.34
     1.049671          0.01
     1.045485          0.56
     1.035689          3.99
     1.031358          1.47
     1.028752          5.22
     1.028567          0.72
     1.027331          1.40
     1.023743          0.00
     1.022356          1.29
     1.019818          0.02
     1.014597          0.75
     1.011358          0.00
     1.009134          0.17
     1.006420          1.10
##############################################################################
###                            Comments                                    ###
##############################################################################
###   Diffraction pattern calculated by Match!. 
###   I/Ic calculated by Match!. 
###   Space group has been derived from given symmetry operations. 
##############################################################################


