##############################################################################
###               Crystal structure data exported by Match!                ###
##############################################################################
###                           Data published by:                           ###
###                                                                        ###
###               COD (Crystallography Open Database)
##############################################################################
data_9011355
_citation_journal_full    'Acta Crystallographica, Section C'
_citation_journal_volume  '41'
_citation_page_first  '827'
_citation_page_last   '832'
_citation_year  '1985'
_citation_title  'The structure of lazurite, ideally Na6Ca2(Al6Si6O24)S2, a member of thesodalite groupLocality: Sary-Sang, Afghanistan'
loop_
_publ_author_name
  'Hassan I.'
  'Peterson R. C.'
  'Grundy H. D.'
_chemical_formula_sum  'Al2.97 Ca0.8 Mg0.36 Na3.12 O15.12 S Si3.03'
_chemical_name_mineral  'Lazurite'
_symmetry_space_group_name_H-M 'P -4 3 n'
_space_group_IT_number 218
_space_group_crystal_system 'cubic'
loop_
_symmetry_equiv_pos_as_xyz
   'x, y, z'
   'y+0.5, -x+0.5, -z+0.5'
   '-x, -y, z'
   '-y+0.5, x+0.5, -z+0.5'
   '-x+0.5, z+0.5, -y+0.5'
   'x, -y, -z'
   '-x+0.5, -z+0.5, y+0.5'
   '-z+0.5, -y+0.5, x+0.5'
   '-x, y, -z'
   'z+0.5, -y+0.5, -x+0.5'
   'z, x, y'
   'y, z, x'
   '-y, -z, x'
   'z, -x, -y'
   '-y, z, -x'
   '-z, -x, y'
   '-z, x, -y'
   'y, -z, -x'
   '-y+0.5, -x+0.5, z+0.5'
   'y+0.5, x+0.5, z+0.5'
   'x+0.5, -z+0.5, -y+0.5'
   'x+0.5, z+0.5, y+0.5'
   '-z+0.5, y+0.5, -x+0.5'
   'z+0.5, y+0.5, x+0.5'
_cell_length_a        9.10500
_cell_length_b        9.10500
_cell_length_c        9.10500
_cell_angle_alpha    90.0000
_cell_angle_beta     90.0000
_cell_angle_gamma    90.0000
loop_
_atom_site_label
_atom_site_fract_x
_atom_site_fract_y
_atom_site_fract_z
_atom_site_occupancy
_atom_site_B_iso_or_equiv
na      0.178   0.178   0.178    0.35000    4.105
na      0.231   0.231   0.231    0.21000    3.237
ca      0.231   0.231   0.231    0.20000    3.237
mg      0.231   0.231   0.231    0.09000    3.237
na      0.305   0.305   0.305    0.22000    2.763
al      0.250   0.000   0.500    0.99000    2.684
si      0.250   0.000   0.500    0.01000    2.684
si      0.250   0.500   0.000    1.00000    3.079
o      0.133   0.147   0.545    0.50000    3.079
o      0.157   0.158   0.474    0.50000    3.079
o      0.598   0.598   0.598    0.78000    16.738
s      0.000   0.000   0.000    1.00000    13.264
_cell_measurement_wavelength    1.541874
_cell_measurement_radiation   'x-rays'
_exptl_crystal_density_diffrn    2.428000
loop_
_pd_peak_d_spacing
_pd_peak_intensity
     6.438207        160.48
     4.552500         17.21
     4.071880          7.37
     3.717100       1000.00
     3.219103         14.58
     2.879254        116.82
     2.628387        270.28
     2.525273          0.23
     2.433413         70.23
     2.276250         66.42
     2.208287          0.05
     2.146069        130.34
     2.035940          5.21
     1.986874          0.06
     1.941192         18.46
     1.858550          7.30
     1.821000          0.04
     1.785637         72.89
     1.690756          0.71
     1.662338         18.18
     1.609552         66.28
     1.561495         25.13
     1.539026          0.34
     1.517500         20.02
     1.496853          0.19
     1.477026         39.69
     1.439627          0.27
     1.421962          0.16
     1.404932          4.10
     1.372630         54.26
     1.357293          0.06
     1.342459          9.71
     1.314193         24.41
     1.300714          0.02
     1.287641         16.29
     1.262636          0.17
     1.250668          0.05
     1.239033         35.74
     1.216707          2.37
     1.195545          5.36
     1.185370          0.03
     1.165776          0.04
     1.156336          5.53
     1.138125          4.25
     1.129336          0.05
     1.120748          4.20
     1.104143          1.83
     1.096113          0.04
     1.088256          3.38
     1.073034          1.16
     1.065660          0.00
     1.058435          6.96
     1.051355          0.05
     1.044415         12.57
     1.037611          0.10
     1.030938          5.52
     1.017970         11.74
     1.011667          0.02
##############################################################################
###                            Comments                                    ###
##############################################################################
###   Diffraction pattern calculated by Match!. 
###   I/Ic calculated by Match!. 
###   Space group has been derived from given symmetry operations. 
##############################################################################


