##############################################################################
###               Crystal structure data exported by Match!                ###
##############################################################################
###                           Data published by:                           ###
###                                                                        ###
###               COD (Crystallography Open Database)
##############################################################################
data_9013442
_citation_journal_full    'Journal of Solid State Chemistry'
_citation_journal_volume  '23'
_citation_page_first  '327'
_citation_page_last   '339'
_citation_year  '1978'
_citation_title  'Oxydes de plomb. IV. Evolution structurale de l'oxyde Pb3O4 entre 240 et 5 K et mecanisme de la transition Locality: synthetic Sample: T = 240 K'
loop_
_publ_author_name
  'Gavarri J. R.'
  'Weigel D.'
  'Hewat A. W.'
_chemical_formula_sum  'O4 Pb3'
_chemical_name_mineral  'Minium'
_symmetry_space_group_name_H-M 'P b a m'
_space_group_IT_number 55
_space_group_crystal_system 'orthorhombic'
loop_
_symmetry_equiv_pos_as_xyz
   'x, y, z'
   '-x, -y, z'
   'x+0.5, -y+0.5, -z'
   '-x+0.5, y+0.5, -z'
   '-x, -y, -z'
   'x, y, -z'
   '-x+0.5, y+0.5, z'
   'x+0.5, -y+0.5, z'
_cell_length_a        8.81890
_cell_length_b        8.80680
_cell_length_c        6.56360
_cell_angle_alpha    90.0000
_cell_angle_beta     90.0000
_cell_angle_gamma    90.0000
loop_
_atom_site_label
_atom_site_fract_x
_atom_site_fract_y
_atom_site_fract_z
_atom_site_occupancy
_atom_site_B_iso_or_equiv
pb      0.000   0.500   0.247    1.00000    1.000
pb      0.141   0.161   0.000    1.00000    1.000
pb      0.164   0.856   0.500    1.00000    1.000
o      0.673   0.171   0.239    1.00000    1.000
o      0.092   0.637   0.000    1.00000    1.000
o      0.133   0.597   0.500    1.00000    1.000
_cell_measurement_wavelength    1.541874
_cell_measurement_radiation   'x-rays'
_cell_measurement_temperature    240.000000
_exptl_crystal_density_diffrn    8.932000
loop_
_pd_peak_d_spacing
_pd_peak_intensity
     6.563600          0.50
     6.231622        220.69
     4.519228          0.01
     4.409450         13.65
     4.403400         11.72
     3.942848          7.08
     3.939601          7.65
     3.660183         27.02
     3.656721         13.75
     3.379899       1000.00
     3.377853        971.58
     3.281800        100.02
     3.115811        269.50
     2.903741        733.92
     2.814757          0.01
     2.788398        484.56
     2.785337        487.17
     2.632669        262.64
     2.631380        270.57
     2.566408          1.53
     2.564021          3.18
     2.522377          1.44
     2.521527          1.43
     2.444889         21.90
     2.443598         12.98
     2.291104         37.79
     2.290042         36.72
     2.259614        102.24
     2.204725         14.53
     2.201700         15.60
     2.187867          0.24
     2.138724          1.46
     2.136135          0.22
     2.124952          1.11
     2.123596          1.25
     2.089970          5.46
     2.087392          3.86
     2.077207         20.63
     2.064333          0.65
     2.033493        109.21
     2.031267        110.72
     1.980399          0.27
     1.971424        109.61
     1.969801        108.76
     1.960621         18.59
     1.959955         11.04
     1.959875          3.10
     1.959343          3.26
     1.913076        185.35
     1.912705        195.49
     1.888096          7.93
     1.886670          7.06
     1.830092        232.28
     1.828360        233.82
     1.791813         10.48
     1.790533          0.53
     1.790289          5.86
     1.762908          2.67
     1.762230          3.75
     1.755170        520.64
     1.729437         21.97
     1.727247         21.03
     1.721264          1.28
     1.720543          0.35
     1.702566          9.63
     1.701955         10.71
     1.689949         13.65
     1.688926         14.31
     1.672358          8.62
     1.670377          3.55
     1.640900        129.29
     1.637318          0.10
     1.635691          0.18
     1.630378         11.91
     1.629995         11.84
     1.588636        122.08
     1.587149        130.95
     1.586810          8.42
     1.557905         95.83
     1.553021          2.96
     1.552981          2.87
     1.552558          4.03
     1.551923          0.88
     1.537867          1.53
     1.537610          1.35
     1.529993         55.56
     1.529385         38.12
     1.528475         56.26
     1.528437         43.37
     1.515792          0.24
     1.514943          0.73
     1.514759          0.77
     1.511879         21.10
     1.510902         22.03
     1.506409          0.10
     1.473299         11.66
     1.472395          6.44
     1.469817         57.07
     1.467800         61.00
     1.465101          0.27
     1.464567          1.74
     1.463935          0.18
     1.463901          4.53
     1.451870         47.05
     1.449764          4.34
     1.447883          2.51
     1.434294          3.31
     1.432420          2.56
     1.415643         18.44
     1.414200        111.15
     1.413890         18.54
     1.413800        112.20
     1.407379          0.51
     1.394199          2.88
     1.392668          2.62
     1.376542          0.57
     1.376128          1.26
     1.373170         14.86
     1.372730          4.33
     1.372438         14.31
     1.372410          4.66
     1.363772          0.00
     1.362482          5.18
     1.362339          0.44
     1.362259          2.97
     1.356749          2.56
     1.355691          2.90
     1.347233         34.26
     1.346844         35.34
     1.341425          2.01
     1.339891          3.00
     1.326130          7.49
     1.324689          4.30
     1.316335          4.19
     1.315690          4.49
     1.314283          0.00
     1.313200          0.15
     1.312720          0.09
     1.310884         61.82
     1.310048         63.20
     1.301873          0.84
     1.301288          0.22
     1.288701          0.63
     1.287681          0.61
     1.287613          8.92
     1.284529          0.13
     1.283204         39.40
     1.282010         40.04
     1.269398          2.57
     1.269072          4.40
     1.269051          0.00
     1.261189         43.97
     1.260763         43.69
     1.258149          1.20
     1.258008          0.21
     1.247147          0.14
     1.246324         13.97
     1.245504         42.27
     1.245401         39.19
     1.243799          7.45
     1.243255          2.71
     1.225225          0.62
     1.224445          0.02
     1.223667          0.39
     1.222444          0.46
     1.221799          0.67
     1.220080          0.01
     1.220061          2.62
     1.219214          0.23
     1.218907          0.75
     1.211243          7.72
     1.209832          4.89
     1.209738          0.09
     1.208519         10.38
     1.207428         10.20
     1.201779          5.59
     1.201165          4.95
     1.201110          1.32
     1.200896          1.82
     1.191131          6.71
     1.190361         11.27
     1.189789          8.00
     1.189646         10.81
     1.187686          0.03
     1.187449          0.61
     1.175764          0.04
     1.174846          0.08
     1.165805         50.40
     1.165133          9.60
     1.165116         20.83
     1.164865         20.02
     1.164463         52.56
     1.159023          0.04
     1.158445          0.08
     1.157731         44.07
     1.156636         45.60
     1.156553          3.40
     1.156417          3.23
     1.145552         61.09
     1.145021         64.31
     1.140131          3.04
     1.139085          1.94
     1.136319          8.45
     1.135154          4.90
     1.129807         58.29
     1.128509          2.45
     1.128229          1.27
     1.127925          0.42
     1.127519          0.69
     1.126633          0.38
     1.125951          0.37
     1.118786         13.33
     1.118415         12.57
     1.112189          9.04
     1.111922          8.66
     1.111878         14.04
     1.111490         14.66
     1.109697          0.28
     1.102363          4.93
     1.100850          4.95
     1.094823         39.32
     1.093989         42.09
     1.093933          2.93
     1.093827          0.01
     1.093480          1.53
     1.092718          0.57
     1.092649          1.68
     1.092372          0.01
     1.092372          0.51
     1.091787          3.98
     1.090868          4.87
     1.087136          5.71
     1.086460          3.29
     1.085686          3.15
     1.085667          1.93
     1.083479          0.77
     1.082940          0.03
     1.082402          0.06
     1.078947         21.59
     1.078614          0.84
     1.077883          1.16
     1.077551         24.89
     1.077458         28.44
     1.069362          3.79
     1.068068          3.76
     1.067177          4.68
     1.067164          3.04
     1.066940          2.41
     1.066734          4.14
     1.062476          2.33
     1.061798          2.13
     1.061747         13.35
     1.061662         13.67
     1.059688          5.01
     1.058742          5.29
     1.055446          1.51
     1.054599          0.56
     1.054412          1.17
     1.054201          1.24
     1.054114          0.00
     1.054052          0.00
     1.052882          1.68
     1.052738          1.90
     1.045619          2.43
     1.045134          0.35
     1.044985          1.54
     1.043696          1.58
     1.038604         25.86
     1.037705          0.23
     1.037409          1.17
     1.036758          0.20
     1.036463          0.07
     1.032166          6.70
     1.031999          0.45
     1.030932          0.82
     1.025840          0.08
     1.025806          0.00
     1.025291          0.11
     1.024700          2.73
     1.024244          2.84
     1.024187         27.13
     1.023789         30.15
     1.023296          1.66
     1.022539          1.95
     1.019475          2.40
     1.018446          2.94
     1.018367          0.09
     1.018218          0.11
     1.016747         14.56
     1.015634         14.44
     1.012437          1.30
     1.011997          3.03
##############################################################################
###                            Comments                                    ###
##############################################################################
###   Diffraction pattern calculated by Match!. 
###   I/Ic calculated by Match!. 
##############################################################################


