##############################################################################
###               Crystal structure data exported by Match!                ###
##############################################################################
###                           Data published by:                           ###
###                                                                        ###
###               COD (Crystallography Open Database)
##############################################################################
data_9008176
_citation_journal_full    'Zeitschrift fur Kristallographie'
_citation_journal_volume  '129'
_citation_page_first  '381'
_citation_page_last   '387'
_citation_year  '1969'
_citation_title  'Refinement of a coesite structureLocality: synthetic'
loop_
_publ_author_name
  'Araki T.'
  'Zoltai T.'
_chemical_formula_sum  'O2 Si'
_chemical_name_mineral  'Coesite'
_symmetry_space_group_name_H-M 'C 1 2/c 1'
_space_group_IT_number 15
_space_group_crystal_system 'monoclinic'
loop_
_symmetry_equiv_pos_as_xyz
   'x, y, z'
   'x+0.5, y+0.5, z'
   '-x, y, -z+0.5'
   '-x+0.5, y+0.5, -z+0.5'
   '-x, -y, -z'
   '-x+0.5, -y+0.5, -z'
   'x, -y, z+0.5'
   'x+0.5, -y+0.5, z+0.5'
_cell_length_a        7.17300
_cell_length_b       12.32800
_cell_length_c        7.17500
_cell_angle_alpha    90.0000
_cell_angle_beta    120.0000
_cell_angle_gamma    90.0000
loop_
_atom_site_label
_atom_site_fract_x
_atom_site_fract_y
_atom_site_fract_z
_atom_site_occupancy
_atom_site_B_iso_or_equiv
si      0.359   0.392   0.427    1.00000    0.227
si      0.493   0.158   0.460    1.00000    0.361
o      0.000   0.000   0.000    1.00000    0.487
o      0.500   0.117   0.250    1.00000    0.725
o      0.267   0.124   0.442    1.00000    0.689
o      0.189   0.396   0.175    1.00000    0.799
o      0.481   0.288   0.021    1.00000    0.926
_cell_measurement_wavelength    1.541874
_cell_measurement_radiation   'x-rays'
_exptl_crystal_density_diffrn    2.905000
loop_
_pd_peak_d_spacing
_pd_peak_intensity
     6.164000         58.07
     5.548132         12.07
     5.547515          6.29
     4.376083         55.86
     3.444613         70.34
     3.444170        717.26
     3.427444        146.94
     3.427299        408.69
     3.106866        854.27
     3.106433        993.48
     3.106000        169.05
     3.099947        850.33
     3.082000       1000.00
     2.774374         76.41
     2.774066         18.45
     2.773758        143.16
     2.761030         65.85
     2.702529         88.78
     2.702315        322.59
     2.337497         89.14
     2.307122         36.68
     2.306901         61.28
     2.306546          6.38
     2.306413         46.46
     2.291730          3.07
     2.291686         27.11
     2.194589         22.47
     2.194283          0.90
     2.188042         24.37
     2.187890         36.93
     2.187739         60.80
     2.054667          0.24
     2.042338          4.14
     2.042062         29.32
     2.039079         19.92
     2.038926          9.18
     2.038681         29.72
     2.038590          0.45
     2.031971          1.43
     2.031880         95.35
     1.963365          1.65
     1.950784          0.74
     1.867969          7.98
     1.867781         17.10
     1.849377         80.81
     1.849172        105.16
     1.793750        172.79
     1.793500          0.21
     1.793250          1.51
     1.782828        112.43
     1.722306          0.79
     1.722085         31.69
     1.721864         32.13
     1.719100         31.68
     1.713795         46.93
     1.713722          9.26
     1.713649        118.42
     1.706819          6.83
     1.706693        130.69
     1.706675          9.26
     1.706406          6.19
     1.700576          8.14
     1.700487          1.73
     1.700345          1.04
     1.700292          3.31
     1.694383         21.10
     1.694366         64.53
     1.659400        174.01
     1.659268          6.74
     1.589304         14.18
     1.589203         56.82
     1.589188          3.84
     1.588971          8.56
     1.585788          0.98
     1.585658         37.84
     1.580920         36.85
     1.580877         43.56
     1.553433         21.69
     1.553216         44.92
     1.553000         36.75
     1.550297         40.70
     1.550135         81.99
     1.549974         36.34
     1.546376          0.55
     1.546269          4.45
     1.541000         48.32
     1.506334          5.23
     1.506136          0.68
     1.505939         16.09
     1.503941          5.80
     1.503843          0.42
     1.495691         27.82
     1.458694          1.04
     1.416061         10.94
     1.415846         34.98
     1.415840         20.53
     1.415733         15.57
     1.415682         19.72
     1.412551          0.31
     1.412480         26.48
     1.412470          1.04
     1.412317          2.03
     1.409006         10.94
     1.408956         13.33
     1.408875          7.27
     1.408845          1.30
     1.388890          0.05
     1.388735          3.16
     1.387187          0.61
     1.387033          3.96
     1.386879          0.00
     1.380515          5.11
     1.380477          1.37
     1.380439          6.38
     1.351264          1.13
     1.351158         62.70
     1.351051         87.39
     1.347846        115.07
     1.347766         15.69
     1.347554         37.58
     1.347422          5.79
     1.346767         15.33
     1.346581         40.52
     1.346484          1.01
     1.346440         50.40
     1.341618         47.43
     1.341540         26.81
     1.337653          0.14
     1.337644         67.69
     1.324184         78.78
     1.323983         53.82
     1.320237         62.81
     1.320171          9.73
     1.293847          7.60
     1.293722          3.93
     1.288397         18.05
     1.288335         10.18
     1.287682         43.89
     1.287613         14.70
     1.287428         50.67
     1.287312          0.19
     1.279671         87.13
     1.279648          3.82
     1.241056          0.08
     1.240890          0.01
     1.239138         12.66
     1.239028          6.02
     1.238918         44.20
     1.236353         44.37
     1.236309         16.93
     1.236139         20.23
     1.234087          6.11
     1.233944         42.59
     1.233869          1.74
     1.233835         14.82
     1.232800          8.54
     1.231761         14.91
     1.231714          8.72
     1.231707          1.40
     1.231606          0.11
     1.218234         12.01
     1.209231          0.36
     1.190247         37.43
     1.190082          1.29
     1.189388          2.38
     1.189236         34.61
     1.188148         27.38
     1.188093         34.30
     1.187948         33.79
     1.187857          0.04
     1.183240          0.24
     1.183210         44.88
     1.183162         32.24
     1.183144          1.00
     1.174308          7.93
     1.174238          2.71
     1.174191          1.72
     1.174051         18.07
     1.174004          0.09
     1.173934          5.71
     1.173630         22.42
     1.171251          0.01
     1.171158          0.01
     1.168887         11.85
     1.168818         19.27
     1.168748          8.08
     1.165848          2.04
     1.153561          0.03
     1.153495          0.19
     1.153450          2.10
     1.153317          2.53
     1.153273          3.03
     1.153206          2.65
     1.152574          6.20
     1.148629          0.08
     1.148585          1.38
     1.148204          5.03
     1.148057         17.79
     1.145887          0.05
     1.145865          2.79
     1.145843          9.24
     1.142481          0.81
     1.142433          6.08
     1.131657         39.45
     1.131532         11.10
     1.114584          4.14
     1.111494          0.98
     1.111440         12.04
     1.111375          0.65
     1.111202          0.49
     1.109626          8.06
     1.109503         16.40
     1.108019         20.96
     1.107915          8.62
     1.107861          2.16
     1.107837         14.05
     1.102926          4.31
     1.102922          1.42
     1.097964         13.23
     1.097850         22.07
     1.097352          1.04
     1.097294          0.01
     1.097256          4.29
     1.097142          1.27
     1.097103          3.92
     1.097046          0.15
     1.094021          0.01
     1.093945          0.44
     1.093870          0.18
     1.091547          7.89
     1.091510          2.06
     1.077026          2.24
     1.076976          0.01
     1.076917          3.64
     1.076760          3.43
     1.075961         22.43
     1.075839          0.76
     1.074410         11.63
     1.074369          1.58
     1.074262          8.46
     1.074195          1.52
     1.072329         22.65
     1.072298          0.13
     1.072294         25.97
     1.072227          0.12
     1.069743          2.90
     1.069730          9.22
     1.063369          3.79
     1.059355          6.37
     1.049166          0.12
     1.049066          0.59
     1.046453         25.04
     1.046387          5.60
     1.035622          1.59
     1.035478          0.03
     1.035333         24.20
     1.033316          7.02
     1.027333          0.13
     1.021308          0.31
     1.021169          0.04
     1.021031          0.55
     1.019540          0.09
     1.019494          0.08
     1.019463          7.74
     1.019371          8.11
     1.019341         26.52
     1.019295         16.73
     1.018054         17.71
     1.017928          2.36
     1.017926          3.39
     1.017834          2.31
     1.017776          0.47
     1.017749          9.52
     1.016732          8.26
     1.016690          8.67
     1.016641          2.75
     1.016508          2.81
     1.015985          4.52
     1.015940         16.65
     1.015895         26.83
     1.015302          9.49
     1.015207         10.96
     1.013574          6.26
     1.011469          3.14
     1.011450          0.04
     1.011421          0.42
     1.011409          0.59
     1.007771          9.16
     1.007623         22.21
##############################################################################
###                            Comments                                    ###
##############################################################################
###   Diffraction pattern calculated by Match!. 
###   I/Ic calculated by Match!. 
###   Space group has been derived from given symmetry operations. 
##############################################################################


