##############################################################################
###               Crystal structure data exported by Match!                ###
##############################################################################
###                           Data published by:                           ###
###                                                                        ###
###               COD (Crystallography Open Database)
##############################################################################
data_8103501
_citation_journal_full    'ur Kristallographie''
_citation_journal_volume  '209(9)'
_citation_page_first  '755'
_citation_year  '1994'
_citation_title  'Crystal structure of lithium cobalt double orthophosphate, LiCoPO4'
loop_
_publ_author_name
  'Kubel F.'
_chemical_formula_sum  'Co Li O4 P'
_chemical_name_common  'Lithium cobalt phosphate'
_symmetry_space_group_name_H-M 'P n m a'
_space_group_IT_number 62
_space_group_crystal_system 'orthorhombic'
loop_
_symmetry_equiv_pos_as_xyz
   'x, y, z'
   '-x+0.5, -y, z+0.5'
   'x+0.5, -y+0.5, -z+0.5'
   '-x, y+0.5, -z'
   '-x, -y, -z'
   'x+0.5, y, -z+0.5'
   '-x+0.5, y+0.5, z+0.5'
   'x, -y+0.5, z'
_cell_length_a       10.20010
_cell_length_b        5.91990
_cell_length_c        4.69000
_cell_angle_alpha    90.0000
_cell_angle_beta     90.0000
_cell_angle_gamma    90.0000
_cell_formula_units_Z 4
loop_
_atom_site_label
_atom_site_fract_x
_atom_site_fract_y
_atom_site_fract_z
_atom_site_occupancy
_atom_site_B_iso_or_equiv
li      0.500   0.500   0.500    1.00000    1.131
p      0.094   0.250   0.418    1.00000    0.273
co      0.279   0.250   0.979    1.00000    0.321
o      0.098   0.250   0.741    1.00000    0.521
o      0.455   0.250   0.204    1.00000    0.486
o      0.166   0.045   0.282    1.00000    0.505
_cell_measurement_wavelength    1.541874
_cell_measurement_radiation   'x-rays'
_cell_measurement_temperature    300.000000
_exptl_crystal_density_diffrn    3.772000
_exptl_crystal_colour            'red'
loop_
_pd_peak_d_spacing
_pd_peak_intensity
     5.100050        382.26
     4.261145        541.33
     3.863898        161.32
     3.676143         68.81
     3.458393        839.53
     3.452206         99.65
     2.982177         80.86
     2.959950        613.64
     2.752763        242.45
     2.560030         30.81
     2.550025          2.38
     2.496098       1000.00
     2.430994        258.58
     2.345000         16.39
     2.341987        176.13
     2.285382         92.60
     2.247067        108.37
     2.240292        128.91
     2.132024         76.22
     2.130572        118.47
     2.095275          0.69
     2.015767         51.87
     2.004693         37.29
     1.931949         29.70
     1.930394          0.52
     1.870711         13.88
     1.840347          1.62
     1.838072        142.40
     1.835284          1.86
     1.818862          7.19
     1.808936         20.86
     1.790617        148.36
     1.786327          0.89
     1.783768         88.92
     1.729197        341.48
     1.726103         86.64
     1.713174         45.59
     1.700017         17.12
     1.657099        151.03
     1.633977        163.51
     1.616921          0.80
     1.603798        229.47
     1.598259          0.57
     1.581360         22.23
     1.560605        101.74
     1.545289          3.05
     1.543013          1.88
     1.539121          0.08
     1.511516          0.46
     1.495188        101.05
     1.494687         18.10
     1.493581         12.94
     1.491089         16.63
     1.489599         34.91
     1.480779          2.19
     1.479975        133.55
     1.474176        136.57
     1.449208         30.32
     1.447744          0.26
     1.421339         12.48
     1.420382          8.10
     1.406339          0.49
     1.398052         26.71
     1.391541         67.12
     1.381182         67.98
     1.379914          5.07
     1.376381         27.00
     1.369846          2.57
     1.365544          4.74
     1.360246          1.32
     1.357612         23.60
     1.354620          1.02
     1.340624         35.09
     1.334226         92.22
     1.332803         15.21
     1.303526         31.26
     1.300257         44.97
     1.299199         24.82
     1.287966         62.57
     1.280573         29.87
     1.280015          2.86
     1.275012          0.05
     1.259318         80.91
     1.251562         17.98
     1.248049          4.49
     1.246431          1.40
     1.242246         15.05
     1.241984          5.60
     1.240872          7.90
     1.237671          4.49
     1.234851          6.77
     1.230357          0.00
     1.225381          5.36
     1.216633         28.12
     1.215497         38.01
     1.215285          0.68
     1.214478          7.27
     1.213616         22.41
     1.211478          0.00
     1.204615          2.38
     1.191472          7.39
     1.174516          0.67
     1.172500         17.38
     1.170994          0.52
     1.164830          7.64
     1.160672          3.00
     1.153310          6.43
     1.152798         34.12
     1.150735          0.48
     1.147965          5.20
     1.144380         32.48
     1.142915          0.71
     1.142691         14.49
     1.141868         17.61
     1.140763         18.09
     1.137218          1.59
     1.136117         15.87
     1.129592         11.67
     1.128899         20.29
     1.123533         22.57
     1.121980          4.52
     1.120146          3.89
     1.119945          0.65
     1.116245         16.02
     1.108442          0.82
     1.104478         36.45
     1.101636         21.72
     1.100616         30.01
     1.090091          6.16
     1.089508          0.40
     1.087644         58.70
     1.085912          0.22
     1.083918         37.33
     1.083043          4.88
     1.073874          7.62
     1.072534          0.65
     1.070915          0.25
     1.068845          0.34
     1.066797          0.23
     1.066012         18.65
     1.065927         16.89
     1.065286          7.48
     1.051663         18.84
     1.051278          7.90
     1.050445         10.64
     1.049057          4.63
     1.048501          0.26
     1.048446          4.66
     1.047638          0.00
     1.046784          2.07
     1.044043          0.02
     1.038044          1.48
     1.034917          6.51
     1.032447         58.38
     1.024782          9.01
     1.020418          2.82
     1.020010          2.97
     1.016558          9.50
     1.013791         48.75
     1.009268          0.04
     1.007884         11.43
##############################################################################
###                            Comments                                    ###
##############################################################################
###   Diffraction pattern calculated by Match!. 
###   I/Ic calculated by Match!. 
###   Space group has been derived from given symmetry operations. 
##############################################################################


