##############################################################################
###               Crystal structure data exported by Match!                ###
##############################################################################
###                           Data published by:                           ###
###                                                                        ###
###               COD (Crystallography Open Database)
##############################################################################
data_9015390
_citation_journal_full    'Powder Diffraction'
_citation_journal_volume  '24'
_citation_page_first  '315'
_citation_page_last   '326'
_citation_year  '2009'
_citation_title  'Texture and structural refinement using neutron diffraction data frommolybdite (MoO3) and calcite (CaCO3) powders and a Ni-rich Ni50.7Ti49.30 alloyNote: March model'
loop_
_publ_author_name
  'Sitepu H.'
_chemical_formula_sum  'C Ca O3'
_chemical_name_mineral  'Calcite'
_symmetry_space_group_name_H-M 'R -3 c'
_space_group_IT_number 167
_space_group_crystal_system 'trigonal (hexagonal axes)'
loop_
_symmetry_equiv_pos_as_xyz
   'x, y, z'
   'x+0.66667, y+0.33333, z+0.33333'
   'x+0.33333, y+0.66667, z+0.66667'
   '-y, x-y, z'
   '-y+0.66667, x-y+0.33333, z+0.33333'
   '-y+0.33333, x-y+0.66667, z+0.66667'
   '-x+y, -x, z'
   '-x+y+0.66667, -x+0.33333, z+0.33333'
   '-x+y+0.33333, -x+0.66667, z+0.66667'
   'x-y, -y, -z+0.5'
   'x-y+0.66667, -y+0.33333, -z+0.83333'
   'x-y+0.33333, -y+0.66667, -z+0.16667'
   '-x, -x+y, -z+0.5'
   '-x+0.66667, -x+y+0.33333, -z+0.83333'
   '-x+0.33333, -x+y+0.66667, -z+0.16667'
   'y, x, -z+0.5'
   'y+0.66667, x+0.33333, -z+0.83333'
   'y+0.33333, x+0.66667, -z+0.16667'
   '-x, -y, -z'
   '-x+0.66667, -y+0.33333, -z+0.33333'
   '-x+0.33333, -y+0.66667, -z+0.66667'
   'y, -x+y, -z'
   'y+0.66667, -x+y+0.33333, -z+0.33333'
   'y+0.33333, -x+y+0.66667, -z+0.66667'
   'x-y, x, -z'
   'x-y+0.66667, x+0.33333, -z+0.33333'
   'x-y+0.33333, x+0.66667, -z+0.66667'
   '-x+y, y, z+0.5'
   '-x+y+0.66667, y+0.33333, z+0.83333'
   '-x+y+0.33333, y+0.66667, z+0.16667'
   'x, x-y, z+0.5'
   'x+0.66667, x-y+0.33333, z+0.83333'
   'x+0.33333, x-y+0.66667, z+0.16667'
   '-y, -x, z+0.5'
   '-y+0.66667, -x+0.33333, z+0.83333'
   '-y+0.33333, -x+0.66667, z+0.16667'
_cell_length_a        4.99029
_cell_length_b        4.99029
_cell_length_c       17.06870
_cell_angle_alpha    90.0000
_cell_angle_beta     90.0000
_cell_angle_gamma   120.0000
loop_
_atom_site_label
_atom_site_fract_x
_atom_site_fract_y
_atom_site_fract_z
_atom_site_occupancy
_atom_site_B_iso_or_equiv
ca      0.000   0.000   0.000    1.00000    1.468
c      0.000   0.000   0.250    1.00000    1.155
o      0.257   0.000   0.250    1.00000    1.763
_cell_measurement_wavelength    1.541874
_cell_measurement_radiation   'x-rays'
_exptl_crystal_density_diffrn    2.709000
loop_
_pd_peak_d_spacing
_pd_peak_intensity
     3.855556         82.31
     3.036449       1000.00
     2.844783         21.72
     2.495145        140.06
     2.285066        187.78
     2.094757        141.41
     1.927778         61.57
     1.913143        190.57
     1.875839        195.15
     1.626027         33.41
     1.604334         90.62
     1.587538          8.35
     1.525507         51.51
     1.518224         23.82
     1.509878         27.03
     1.473462         19.90
     1.440573         61.82
     1.422392         35.07
     1.357094         12.70
     1.339413         20.47
     1.296994         25.89
     1.285185          4.79
     1.247573         10.37
     1.235708         19.03
     1.218620          0.22
     1.195684          0.04
     1.186979          4.57
     1.180128         21.56
     1.173394          2.61
     1.153968         41.10
     1.142533         19.63
     1.130941          0.03
     1.125010          4.62
     1.075690          0.03
     1.071874          0.01
     1.061839          7.24
     1.047378         25.48
     1.045012         28.15
     1.042279          0.10
     1.035706         12.94
     1.035330          3.75
     1.023361          3.00
     1.012150         27.21
##############################################################################
###                            Comments                                    ###
##############################################################################
###   Synthetic
###   Diffraction pattern calculated by Match!. 
###   I/Ic calculated by Match!. 
##############################################################################


