##############################################################################
###               Crystal structure data exported by Match!                ###
##############################################################################
###                           Data published by:                           ###
###                                                                        ###
###               COD (Crystallography Open Database)
##############################################################################
data_9013580
_citation_journal_full    'American Mineralogist'
_citation_journal_volume  '94'
_citation_page_first  '451'
_citation_page_last   '460'
_citation_year  '2009'
_citation_title  'Molecular conformation and anion configuration variations for As4S4 andAs4Se4 in an anion-substituted solid solution Locality: synthetic Note:S1Se1-15'
loop_
_publ_author_name
  'Kyono A.'
_chemical_formula_sum  'As S0.848 Se0.152'
_chemical_name_mineral  'Realgar'
_symmetry_space_group_name_H-M 'P 1 21/n 1'
_space_group_IT_number 14
_space_group_crystal_system 'monoclinic'
loop_
_symmetry_equiv_pos_as_xyz
   'x, y, z'
   '-x+0.5, y+0.5, -z+0.5'
   '-x, -y, -z'
   'x+0.5, -y+0.5, z+0.5'
_cell_length_a        9.38280
_cell_length_b       13.58370
_cell_length_c        6.61820
_cell_angle_alpha    90.0000
_cell_angle_beta    106.4839
_cell_angle_gamma    90.0000
loop_
_atom_site_label
_atom_site_fract_x
_atom_site_fract_y
_atom_site_fract_z
_atom_site_occupancy
_atom_site_B_iso_or_equiv
as      0.121   -0.021   0.763    1.00000    2.021
as      0.424   0.139   0.857    1.00000    1.963
as      0.322   0.127   0.177    1.00000    1.996
as      0.040   0.161   0.713    1.00000    2.177
s      0.345   -0.007   0.699    0.83600    2.502
se      0.345   -0.007   0.699    0.16400    2.502
s      0.214   -0.024   0.119    0.81000    2.526
se      0.214   -0.024   0.119    0.19000    2.526
s      0.239   0.227   0.639    0.89500    2.692
se      0.239   0.227   0.639    0.10500    2.692
s      0.106   0.212   0.052    0.85000    2.810
se      0.106   0.212   0.052    0.15000    2.810
_cell_measurement_wavelength    1.541874
_cell_measurement_radiation   'x-rays'
_exptl_crystal_density_diffrn    3.749000
loop_
_pd_peak_d_spacing
_pd_peak_intensity
     7.501003         72.73
     6.791850         70.97
     6.058453        387.98
     5.749652        492.41
     5.533067        258.33
     5.420735       1000.00
     4.636986        107.15
     4.606667         35.69
     4.521113         11.41
     4.498581          6.94
     4.362620          0.01
     4.270486         29.27
     4.089805        192.91
     4.044591         22.33
     3.812450         32.81
     3.750501         92.14
     3.685902         53.60
     3.626895          6.03
     3.626331         84.06
     3.395925          0.02
     3.229197         17.22
     3.207262         32.33
     3.191293        340.59
     3.177144        310.31
     3.173094        428.46
     3.169557         15.46
     3.113742         13.00
     3.089910         84.29
     3.068666        369.89
     3.029227          3.32
     2.994190        191.32
     2.993238         85.68
     2.968612        233.67
     2.962300          0.04
     2.956601        171.94
     2.938637        502.68
     2.928527         17.54
     2.874826        113.91
     2.796479        152.12
     2.766533         19.61
     2.743493        136.28
     2.733473        461.71
     2.710368        123.55
     2.702009        172.72
     2.667179          0.51
     2.662375         71.68
     2.645376          9.44
     2.600761        170.90
     2.598539         36.54
     2.554639         11.97
     2.540247         30.55
     2.529528        145.81
     2.517738          7.60
     2.500334        128.76
     2.497513          1.13
     2.478916        165.06
     2.455676         90.43
     2.416506         60.40
     2.407403         92.69
     2.366853         73.60
     2.354886          1.48
     2.351577         15.22
     2.340110          0.05
     2.325564         10.22
     2.318493          3.95
     2.309363         33.06
     2.305414          0.99
     2.303334         14.00
     2.295035          0.14
     2.276805          0.02
     2.270918          1.35
     2.263950        145.01
     2.260556          0.74
     2.249291         21.59
     2.247934         50.61
     2.238067         97.70
     2.219074         23.96
     2.211828         23.67
     2.203235        132.98
     2.195510        101.40
     2.181310         36.00
     2.174814         66.64
     2.158644          1.72
     2.144407        101.02
     2.140470          3.73
     2.138489        123.81
     2.135243         47.93
     2.132327          5.67
     2.120718         43.30
     2.118175         39.56
     2.097566          0.25
     2.095725          0.38
     2.090202         27.30
     2.086912          0.72
     2.078353          1.26
     2.063684          0.04
     2.063163         51.70
     2.052972          4.88
     2.051612         15.52
     2.044903         45.00
     2.034121          4.04
     2.031839          4.87
     2.022509          0.20
     2.022296         24.02
     2.019700          1.24
     2.019484         25.70
     2.014429          2.79
     2.013454         20.35
     2.002124         11.65
     1.997530         12.24
     1.989913         50.07
     1.981145         21.57
     1.953569          7.49
     1.940234          2.69
     1.938046          0.46
     1.935727          5.75
     1.935139         37.37
     1.932892          0.42
     1.926491          3.10
     1.920739         19.73
     1.916551          4.31
     1.906225         10.02
     1.905007          5.09
     1.896909         10.17
     1.876733         21.12
     1.876560         18.31
     1.875251          7.89
     1.868732          2.16
     1.866962         50.76
     1.865603        103.22
     1.859437        135.52
     1.858905         26.47
     1.855712          9.09
     1.851177         15.58
     1.848312          5.23
     1.848045          2.96
     1.844356          4.37
     1.842951         82.67
     1.825859          0.10
     1.821804        122.25
     1.821748          0.06
     1.813448          4.86
     1.813166         19.22
     1.808789        131.73
     1.806912         15.43
     1.803996         10.65
     1.795527         32.53
     1.793114         81.64
     1.788338          5.10
     1.784048          2.50
     1.783849          2.92
     1.783398         26.70
     1.781820          0.35
     1.772709         51.86
     1.770784         18.39
     1.767977         13.67
     1.758084          0.83
     1.756880         18.15
     1.749667         21.35
     1.739605          6.95
     1.739420         18.42
     1.735755         58.39
     1.733574         23.47
     1.732542          3.90
     1.720216         15.24
     1.711230        124.33
     1.700123         65.69
     1.697963         49.37
     1.693365          6.47
     1.692840          0.79
     1.688783         52.80
     1.684658        133.09
     1.683225         34.38
     1.680270         96.96
     1.674013          3.47
     1.672827          5.92
     1.672385         29.61
     1.672220          3.66
     1.669085         32.78
     1.668510         18.51
     1.667408          0.04
     1.664513         32.39
     1.655489          5.06
     1.650291         30.68
     1.642471         64.17
     1.640267          2.82
     1.640110         18.88
     1.638246          4.81
     1.634965          5.93
     1.634005         19.33
     1.632352          7.19
     1.629766          8.93
     1.629219         19.03
     1.626858         39.46
     1.620747          0.01
     1.619463          0.12
     1.618161          0.80
     1.615383          0.88
     1.615087          5.24
     1.614599         11.61
     1.604226         17.61
     1.604080         13.51
     1.603790         43.95
     1.603631          2.46
     1.598102          0.02
     1.595646          6.13
     1.593185          1.49
     1.591899          0.91
     1.590150          1.60
     1.590009          7.18
     1.588572          8.15
     1.586884          5.81
     1.586547          0.34
     1.585644         17.68
     1.584778         55.98
     1.578951         30.22
     1.578914          0.00
     1.578738          0.19
     1.575835          6.05
     1.571544          4.98
     1.571272         17.51
     1.570141          0.00
     1.564884         16.07
     1.560084          7.65
     1.556871         23.82
     1.551665          0.02
     1.550517          0.00
     1.549643         27.05
     1.545662          1.77
     1.545517          2.29
     1.544955          5.78
     1.544451          8.27
     1.544025          6.74
     1.535556          4.71
     1.534333          0.47
     1.533456          4.70
     1.525837          0.01
     1.524638         23.40
     1.522533         15.74
     1.522158         50.13
     1.521457          2.26
     1.521210          5.44
     1.514613         46.04
     1.512125          0.13
     1.511051          5.11
     1.509881          3.05
     1.507038         21.16
     1.505892         45.98
     1.505285         26.86
     1.500319          6.24
     1.500201          0.90
     1.499527          1.15
     1.497753          5.88
     1.497292          5.41
     1.497095         20.15
     1.496619          1.70
     1.493556          3.11
     1.490473          0.30
     1.488501          4.49
     1.485692          5.95
     1.484306         16.84
     1.484053         14.84
     1.482814         32.66
     1.481150          0.22
     1.479918          0.14
     1.478693          2.99
     1.478301         10.73
     1.477582          7.13
     1.476512         40.17
     1.473230          1.67
     1.469319         68.03
     1.469296          0.92
     1.468345          2.03
     1.466095          0.05
     1.464538          1.76
     1.464264          6.38
     1.461755          8.17
     1.458753         17.83
     1.458535         48.12
     1.457000         10.35
     1.456230          6.88
     1.454207          0.30
     1.453168         15.21
     1.449574         21.42
     1.445784          6.39
     1.445173         14.11
     1.444767          0.94
     1.438854          0.82
     1.437413          7.12
     1.436382          1.98
     1.434281          1.97
     1.430912         40.36
     1.429992         19.32
     1.423713          1.10
     1.423495          0.04
     1.421752          0.64
     1.418998          3.53
     1.418532          0.07
     1.417451          8.46
     1.416819         12.17
     1.410455         16.21
     1.408771         11.40
     1.408673          1.17
     1.406688          3.79
     1.399241          2.62
     1.399165          0.34
     1.398950          5.33
     1.398240          2.03
     1.397576          3.17
     1.396616         11.11
     1.396514          5.59
     1.396227         10.92
     1.388474          0.09
     1.388286          0.21
     1.383267          1.51
     1.380552          0.16
     1.378552          0.10
     1.376700          0.78
     1.376466          0.13
     1.374886          1.58
     1.374612         27.42
     1.374149          2.10
     1.372597         27.98
     1.372057          2.79
     1.371746          0.59
     1.371508          8.07
     1.370035          5.15
     1.369599          0.39
     1.367673          3.39
     1.366737          4.79
     1.366288          0.43
     1.365769          0.85
     1.363268          1.96
     1.362970          2.52
     1.358370          1.34
     1.355184          5.53
     1.354349          0.17
     1.354062          0.14
     1.353564          0.23
     1.351004          2.83
     1.350905         11.59
     1.348976          1.14
     1.348197          0.22
     1.347339          2.99
     1.344911          2.22
     1.343148          0.55
     1.340971          0.41
     1.340717          2.29
     1.336796          0.02
     1.336186          1.40
     1.335989         13.89
     1.335618          5.21
     1.333843          3.36
     1.333590          0.61
     1.331188         29.77
     1.330405          0.01
     1.329208          0.02
     1.328283         12.46
     1.327546          4.80
     1.325463          4.06
     1.324160          4.84
     1.323911          0.01
     1.323472          2.61
     1.322910         11.17
     1.322688          0.27
     1.319536          0.18
     1.319455          0.39
     1.318785          1.19
     1.317610          1.16
     1.317398         10.40
     1.315375         19.86
     1.314965          0.05
     1.314805          1.10
     1.312822          0.05
     1.310519          0.61
     1.309858          0.00
     1.309227          2.28
     1.308229          4.91
     1.307580          0.09
     1.305020          2.68
     1.303810          0.05
     1.303188          2.36
     1.302908          4.48
     1.302808          0.00
     1.302054          1.43
     1.300381          4.92
     1.299632          1.36
     1.299269          3.11
     1.299196          8.86
     1.297446          0.01
     1.297216          0.80
     1.294970          3.77
     1.293071          0.32
     1.287280          0.12
     1.286158          2.07
     1.285848          4.13
     1.285622          4.52
     1.285560          1.86
     1.281539         13.45
     1.281322         10.17
     1.281048          1.13
     1.279593          0.14
     1.277763          0.61
     1.277319          0.01
     1.275911          2.68
     1.274220          0.04
     1.273099          0.56
     1.270817          1.23
     1.270466          4.38
     1.270123          2.21
     1.269929          4.82
     1.268250          1.68
     1.265133          0.14
     1.264869         10.48
     1.264764          0.05
     1.264416          0.26
     1.263733          1.10
     1.262894          9.13
     1.262787          0.88
     1.262416          0.88
     1.259059          0.05
     1.258869          8.58
     1.258266          0.23
     1.257707          1.71
     1.257153          0.79
     1.256748          0.59
     1.256148          0.11
     1.254483          1.29
     1.253848          0.46
     1.253295          0.04
     1.250167          0.07
     1.248757          1.28
     1.248732          2.32
     1.248296          1.43
     1.248008          0.38
     1.247639          1.21
     1.247251          8.98
     1.247047          2.46
     1.245637          0.45
     1.245156          1.32
     1.242941          0.73
     1.242116          1.92
     1.241582          3.47
     1.241514          0.50
     1.241379          1.18
     1.240916         15.38
     1.239458          0.00
     1.238247          0.33
     1.238222          0.31
     1.238213          9.50
     1.237365          1.09
     1.236458          2.65
     1.235840          0.08
     1.235022          1.29
     1.234955          7.83
     1.234241          0.86
     1.233268          0.02
     1.229340          7.02
     1.228634          0.60
     1.228279          0.01
     1.227838          5.40
     1.226576          2.50
     1.223412          3.44
     1.223157         11.22
     1.222853          0.11
     1.222748          0.11
     1.222130          0.00
     1.222100         16.92
     1.221587          3.70
     1.218510          0.94
     1.216729          0.45
     1.216368          1.85
     1.215809          0.30
     1.213242          8.06
     1.212147          3.75
     1.211691          0.03
     1.211441          0.33
     1.210194          0.01
     1.210002          3.41
     1.208965          9.90
     1.208777          1.35
     1.208253          1.06
     1.206899          6.79
     1.206652          0.68
     1.205420          0.01
     1.204156          7.00
     1.203701          1.67
     1.203566          4.09
     1.202089          0.10
     1.201404          2.32
     1.198601          3.41
     1.195466          0.11
     1.194390          1.51
     1.194184          6.11
     1.193977          0.09
     1.193152         10.32
     1.192973          0.02
     1.192856          0.28
     1.192770          4.71
     1.192618          1.31
##############################################################################
###                            Comments                                    ###
##############################################################################
###   Diffraction pattern calculated by Match!. 
###   I/Ic calculated by Match!. 
##############################################################################


