##############################################################################
###               Crystal structure data exported by Match!                ###
##############################################################################
###                           Data published by:                           ###
###                                                                        ###
###               COD (Crystallography Open Database)
##############################################################################
data_2219454
_citation_journal_full    'Acta Crystallographica Section E'
_citation_journal_volume  '64(9)'
_citation_page_first  'i53'
_citation_page_last   'i54'
_citation_year  '2008'
_citation_title  'Redetermination of conichalcite, CaCu(AsO~4~)(OH)'
loop_
_publ_author_name
  'Henderson Rachel R.'
  'Yang Hexiong'
  'Downs Robert T.'
  'Jenkins Robert A.'
_chemical_formula_sum  'As Ca Cu H O5'
_chemical_name_common  'Conichalcite'
_symmetry_space_group_name_H-M 'P 21 21 21'
_space_group_IT_number 19
_space_group_crystal_system 'orthorhombic'
loop_
_symmetry_equiv_pos_as_xyz
   'x, y, z'
   '-x+0.5, -y, z+0.5'
   'x+0.5, -y+0.5, -z'
   '-x, y+0.5, -z+0.5'
_cell_length_a        7.38220
_cell_length_b        5.81460
_cell_length_c        9.21360
_cell_angle_alpha    90.0000
_cell_angle_beta     90.0000
_cell_angle_gamma    90.0000
_cell_formula_units_Z 4
loop_
_atom_site_label
_atom_site_fract_x
_atom_site_fract_y
_atom_site_fract_z
_atom_site_occupancy
_atom_site_B_iso_or_equiv
ca      0.617   0.730   0.073    1.00000    0.894
cu      -0.004   -0.000   0.250    1.00000    0.709
as      0.367   0.264   0.081    1.00000    0.606
o      0.188   0.245   0.198    1.00000    1.065
o      0.539   0.331   0.193    1.00000    1.476
o      0.351   0.493   -0.029    1.00000    1.239
o      0.389   0.015   -0.008    1.00000    1.144
o      -0.139   0.254   0.318    1.00000    0.892
h      -0.229   0.232   0.260    1.00000    4.342
_cell_measurement_wavelength    1.541874
_cell_measurement_radiation   'x-rays'
_cell_measurement_temperature    293.000000
_exptl_crystal_density_diffrn    4.359000
_exptl_crystal_colour            'green'
loop_
_pd_peak_d_spacing
_pd_peak_intensity
     5.761075        301.36
     4.917268        239.15
     4.606800          7.06
     4.567825          1.85
     4.092488        388.00
     3.908241        156.67
     3.691100        184.87
     3.610862         11.14
     3.426374        192.32
     3.243632        153.41
     3.116246        891.90
     2.951972         13.63
     2.907300         88.96
     2.880538        248.30
     2.835597       1000.00
     2.772546          9.58
     2.715663          6.74
     2.705081          7.70
     2.595527        787.38
     2.581166        367.14
     2.548682        483.99
     2.458634        161.94
     2.377404        137.30
     2.360844         84.80
     2.332664        137.15
     2.303400         39.91
     2.283912        157.16
     2.266155          1.64
     2.216819          9.71
     2.200571         19.80
     2.198849          1.46
     2.187419          1.15
     2.170497          0.61
     2.141491          0.18
     2.111337          0.08
     2.056702          0.01
     2.046244        210.27
     2.033444         32.72
     2.029946         14.70
     1.954121         71.59
     1.920358          9.78
     1.896688          8.61
     1.878264          0.16
     1.874664          0.22
     1.852314         61.99
     1.845550         38.28
     1.840411         76.24
     1.837024         62.07
     1.832697          1.81
     1.823484        179.52
     1.809604          5.00
     1.805431        209.16
     1.787862          6.73
     1.786522         18.61
     1.759069          0.77
     1.756618          5.89
     1.753745          3.94
     1.739258          6.69
     1.736399         14.67
     1.727860         16.73
     1.716007        118.96
     1.713187        226.12
     1.708904         61.23
     1.686997          2.87
     1.681622          1.62
     1.648684         17.27
     1.643342          0.51
     1.639089          0.42
     1.621816         82.90
     1.615421         27.15
     1.608068         46.74
     1.602359        450.63
     1.600122         92.69
     1.586156          3.15
     1.581903          0.69
     1.558123        188.21
     1.556419          0.05
     1.536310          2.17
     1.535600         65.87
     1.526422          4.48
     1.522939        211.51
     1.522608          0.26
     1.503418          0.02
     1.502234          9.90
     1.498029          1.32
     1.484697          0.00
     1.483028          4.88
     1.475986         10.85
     1.474990         76.08
     1.457841         58.01
     1.455656          4.63
     1.455551          0.79
     1.453979          3.65
     1.453650        125.63
     1.445691         17.44
     1.440269         47.07
     1.435889          1.09
     1.434135         64.43
     1.431028          0.29
     1.429707         29.78
     1.426262          1.41
     1.417798         17.78
     1.414073         18.93
     1.409474         31.32
     1.405996         14.58
     1.398020          1.48
     1.389528          1.27
     1.386273          0.00
     1.377442        100.37
     1.376109         24.67
     1.366611          3.89
     1.364163         50.74
     1.362459         13.11
     1.357831          8.01
     1.352541          8.25
     1.338199         19.60
     1.336555          0.00
     1.335479          6.87
     1.335430          3.18
     1.330662          0.01
     1.322710          5.36
     1.316415          0.16
     1.315386          2.74
     1.314148         21.32
     1.313905          0.16
     1.303999          1.95
     1.303180          7.20
     1.302747          1.48
     1.297764         31.22
     1.297129         47.14
     1.295793          3.12
     1.293576        136.65
     1.290583          0.45
     1.283749          7.02
     1.283623          5.38
     1.274341         29.71
     1.272395         18.22
     1.271231          2.64
     1.270183          8.47
     1.265751         23.09
     1.264768          7.56
     1.255809          0.81
     1.251579          0.08
     1.243008          0.29
     1.240189         46.96
     1.239763          0.37
     1.237821          6.04
     1.230367         12.35
     1.229317          4.96
     1.225532          0.94
     1.219541          7.72
     1.215544          0.31
     1.212619          0.03
     1.212508          0.99
     1.209949         93.59
     1.207799          2.43
     1.203714         50.09
     1.203621          1.00
     1.199068          0.01
     1.193571          5.59
     1.189800          3.71
     1.188849          0.68
     1.188702         10.87
     1.187935          0.18
     1.183557         37.25
     1.180422          1.86
     1.174490          1.06
     1.173760         15.49
     1.166332         29.34
     1.165062          9.27
     1.164615          8.64
     1.160626         36.25
     1.159032          1.53
     1.156825          0.29
     1.156035          7.95
     1.153766          3.45
     1.152215         27.03
     1.151700          1.16
     1.148754          0.27
     1.144318         48.13
     1.142928          4.31
     1.142125          0.06
     1.141956         10.70
     1.141285          0.00
     1.140404          6.89
     1.139928         11.62
     1.138173          5.88
     1.138086          2.63
     1.137935          4.97
     1.133285          0.88
     1.133078          3.61
     1.130238         13.75
     1.129752          0.57
     1.127886          4.71
     1.127549          4.45
     1.124605          1.78
     1.120710          0.57
     1.116750          3.16
     1.114622          1.93
     1.109172         25.92
     1.108410         66.41
     1.101221          0.63
     1.100285         14.77
     1.099722          0.39
     1.099424          8.52
     1.097010         28.01
     1.093709        120.53
     1.090353          6.08
     1.088881          3.88
     1.087564          0.30
     1.085248          6.12
     1.081926         10.13
     1.081211          0.18
     1.080283         21.53
     1.078357         12.01
     1.077907          3.58
     1.077225          4.54
     1.075951         16.47
     1.071614          0.63
     1.071159          0.79
     1.070746         53.68
     1.070359          1.73
     1.066826          6.11
     1.064301          0.04
     1.063038          1.33
     1.059657          2.78
     1.055669         35.87
     1.053866          3.57
     1.051419          0.00
     1.047759          1.38
     1.046908          0.19
     1.046322          0.06
     1.045037          0.02
     1.044639          7.88
     1.044384          0.92
     1.043222          0.90
     1.043105          1.02
     1.038749         23.49
     1.038117          3.29
     1.037671          0.66
     1.035849          0.00
     1.035348         39.36
     1.032209          2.64
     1.031152          3.23
     1.029364         35.56
     1.028351         12.10
     1.028007          0.04
     1.028002          2.15
     1.026715          3.37
     1.025060          5.08
     1.023243          0.63
     1.023122         26.74
     1.016722         15.83
     1.014973         13.05
     1.014029         34.13
     1.013309          5.91
     1.012308         10.53
     1.010617          6.26
     1.008226          0.51
     1.008165          0.40
     1.007758          1.78
##############################################################################
###                            Comments                                    ###
##############################################################################
###   Diffraction pattern calculated by Match!. 
###   I/Ic calculated by Match!. 
###   Space group has been derived from given symmetry operations. 
##############################################################################


