##############################################################################
###               Crystal structure data exported by Match!                ###
##############################################################################
###                           Data published by:                           ###
###                                                                        ###
###               COD (Crystallography Open Database)
##############################################################################
data_9007153
_citation_journal_full    'Physics and Chemistry of Minerals'
_citation_journal_volume  '29'
_citation_page_first  '633'
_citation_page_last   '641'
_citation_year  '2002'
_citation_title  'Bonding character of SiO2 stishovite under high pressures up to 30 GPaSample: P = 12.3 GPa'
loop_
_publ_author_name
  'Yamanaka T.'
  'Fukuda T.'
  'Tsuchiya J.'
_chemical_formula_sum  'O2 Si'
_chemical_name_mineral  'Stishovite'
_symmetry_space_group_name_H-M 'P 42/m n m'
_space_group_IT_number 136
_space_group_crystal_system 'tetragonal'
loop_
_symmetry_equiv_pos_as_xyz
   'x, y, z'
   '-y+0.5, x+0.5, z+0.5'
   '-x, -y, z'
   'y+0.5, -x+0.5, z+0.5'
   'x+0.5, -y+0.5, -z+0.5'
   '-x+0.5, y+0.5, -z+0.5'
   'y, x, -z'
   '-y, -x, -z'
   '-x, -y, -z'
   'y+0.5, -x+0.5, -z+0.5'
   'x, y, -z'
   '-y+0.5, x+0.5, -z+0.5'
   '-x+0.5, y+0.5, z+0.5'
   'x+0.5, -y+0.5, z+0.5'
   '-y, -x, z'
   'y, x, z'
_cell_length_a        4.11800
_cell_length_b        4.11800
_cell_length_c        2.64900
_cell_angle_alpha    90.0000
_cell_angle_beta     90.0000
_cell_angle_gamma    90.0000
loop_
_atom_site_label
_atom_site_fract_x
_atom_site_fract_y
_atom_site_fract_z
_atom_site_occupancy
_atom_site_B_iso_or_equiv
si      0.000   0.000   0.000    1.00000    0.494
o      0.306   0.306   0.000    1.00000    0.520
_cell_measurement_wavelength    1.541874
_cell_measurement_radiation   'x-rays'
_cell_measurement_pressure       12300000.000000
_exptl_crystal_density_diffrn    4.442000
loop_
_pd_peak_d_spacing
_pd_peak_intensity
     2.911866       1000.00
     2.227860        251.53
     2.059000          6.85
     1.959482        394.88
     1.841626        143.06
     1.512110        559.29
     1.455933        185.24
     1.324500         97.24
     1.302226         58.74
     1.275918         12.07
     1.218758        245.58
     1.205636         97.13
     1.168650         20.24
     1.142128          4.33
     1.113930         10.30
     1.075284         24.59
     1.048798         26.53
     1.029500         32.63
##############################################################################
###                            Comments                                    ###
##############################################################################
###   Diffraction pattern calculated by Match!. 
###   I/Ic calculated by Match!. 
###   Space group has been derived from given symmetry operations. 
##############################################################################


