##############################################################################
###               Crystal structure data exported by Match!                ###
##############################################################################
###                           Data published by:                           ###
###                                                                        ###
###               COD (Crystallography Open Database)
##############################################################################
data_9000615
_citation_journal_full    'American Mineralogist'
_citation_journal_volume  '63'
_citation_page_first  '289'
_citation_page_last   '292'
_citation_year  '1978'
_citation_title  'The crystal structures and compressibilities of layer minerals at highpressure.  I. SnS2, berndtiteP = 30 kbar'
loop_
_publ_author_name
  'Hazen R. M.'
  'Finger L. W.'
_chemical_formula_sum  'S2 Sn'
_chemical_name_mineral  'Berndtite-2T'
_symmetry_space_group_name_H-M 'P -3 m 1'
_space_group_IT_number 164
_space_group_crystal_system 'trigonal (hexagonal axes)'
loop_
_symmetry_equiv_pos_as_xyz
   'x, y, z'
   '-y, x-y, z'
   '-x+y, -x, z'
   'x-y, -y, -z'
   '-x, -x+y, -z'
   'y, x, -z'
   '-x, -y, -z'
   'y, -x+y, -z'
   'x-y, x, -z'
   '-x+y, y, z'
   'x, x-y, z'
   '-y, -x, z'
_cell_length_a        3.60500
_cell_length_b        3.60500
_cell_length_c        5.46000
_cell_angle_alpha    90.0000
_cell_angle_beta     90.0000
_cell_angle_gamma   120.0000
loop_
_atom_site_label
_atom_site_fract_x
_atom_site_fract_y
_atom_site_fract_z
_atom_site_occupancy
_atom_site_B_iso_or_equiv
sn      0.000   0.000   0.000    1.00000    1.899
s      0.667   0.333   -0.271    1.00000    2.100
_cell_measurement_wavelength    1.541874
_cell_measurement_radiation   'x-rays'
_cell_measurement_pressure       3000000.000000
_exptl_crystal_density_diffrn    4.941000
loop_
_pd_peak_d_spacing
_pd_peak_intensity
     5.460000        683.02
     3.122022        295.98
     2.730000         27.97
     2.710241       1000.00
     2.055111        493.94
     1.820000         47.72
     1.802500        220.31
     1.711640        136.43
     1.572336        108.54
     1.561011         29.96
     1.504206         24.01
     1.500876        114.49
     1.365000         20.70
     1.355121         90.88
     1.280702         64.63
     1.250685         26.81
     1.184883         31.38
     1.180013         17.52
     1.153385         71.95
     1.092000          1.80
     1.088185         46.84
     1.083160         69.45
     1.040674         21.89
     1.030766         27.11
     1.027556         12.06
     1.022271         15.72
##############################################################################
###                            Comments                                    ###
##############################################################################
###   Diffraction pattern calculated by Match!. 
###   I/Ic calculated by Match!. 
###   Space group has been derived from given symmetry operations. 
##############################################################################


