##############################################################################
###               Crystal structure data exported by Match!                ###
##############################################################################
###                           Data published by:                           ###
###                                                                        ###
###               COD (Crystallography Open Database)
##############################################################################
data_4343554
_citation_journal_full    'Inorganic Chemistry'
_citation_journal_volume  '15'
_citation_page_first  '2744'
_citation_page_last   '2748'
_citation_year  '1976'
_citation_title  'Crystal structure of cobalt(II) orthophosphate monohydrate, Co3 (P O4)2 H2 O'
loop_
_publ_author_name
  'Anderson J.'
  'Kostiner E.'
  'Ruszala F.A.'
_chemical_formula_sum  'Co3 H2 O9 P2'
_chemical_name_common  'Co3 (P O4)2 (H2 O)'
_symmetry_space_group_name_H-M 'P 1 21/c 1'
_space_group_IT_number 14
_space_group_crystal_system 'monoclinic'
loop_
_symmetry_equiv_pos_as_xyz
   'x, y, z'
   '-x, y+0.5, -z+0.5'
   '-x, -y, -z'
   'x, -y+0.5, z+0.5'
_cell_length_a        9.52300
_cell_length_b        7.90300
_cell_length_c        9.29400
_cell_angle_alpha    90.0000
_cell_angle_beta    114.1500
_cell_angle_gamma    90.0000
_cell_formula_units_Z 4
loop_
_atom_site_label
_atom_site_fract_x
_atom_site_fract_y
_atom_site_fract_z
_atom_site_occupancy
_atom_site_B_iso_or_equiv
o      0.176   0.347   0.411    1.00000    1.000
o      0.892   0.347   0.448    1.00000    1.000
o      0.790   0.135   0.188    1.00000    1.000
o      0.143   0.376   0.133    1.00000    1.000
p      0.121   0.467   0.267    1.00000    1.000
co      0.240   0.091   0.046    1.00000    1.000
p      0.493   0.013   0.301    1.00000    1.000
co      0.572   0.183   0.032    1.00000    1.000
o      0.050   0.010   0.279    1.00000    1.000
o      0.624   0.131   0.407    1.00000    1.000
o      0.336   0.072   0.292    1.00000    1.000
co      0.131   0.114   0.109    1.00000    1.000
o      0.463   0.340   0.117    1.00000    1.000
o      0.490   -0.005   0.136    1.00000    1.000
_cell_measurement_wavelength    1.541874
_cell_measurement_radiation   'x-rays'
_exptl_crystal_density_diffrn    3.983000
loop_
_pd_peak_d_spacing
_pd_peak_intensity
     8.689523         52.56
     5.846596        192.43
     5.781675       1000.00
     5.585352         91.64
     4.629747         17.22
     4.344761          8.21
     4.292889         17.90
     4.240283         44.10
     4.059459        124.93
     3.994745          0.13
     3.951500        105.85
     3.947384         10.04
     3.807333        316.25
     3.736438        175.65
     3.597045         21.10
     3.581769         96.60
     3.533592        125.76
     3.531383         77.76
     3.313723        115.87
     3.126598         55.17
     3.084638         27.36
     3.055957          0.78
     3.040255          1.17
     3.032877        166.81
     3.005602         38.84
     2.938672         70.54
     2.923298          0.25
     2.896508        212.11
     2.890837        154.43
     2.873818          1.25
     2.837532         22.62
     2.800533        152.65
     2.792676         97.59
     2.719602         41.18
     2.661703         49.50
     2.556493         59.92
     2.555464         15.26
     2.539085          1.22
     2.521029        168.67
     2.515753         92.03
     2.498887          0.70
     2.496805          3.17
     2.470606         73.35
     2.432394         24.51
     2.431692          2.32
     2.409591          3.60
     2.386810          8.38
     2.365670          0.09
     2.341786          1.01
     2.341341         25.09
     2.336113          8.84
     2.314873         19.71
     2.308141         79.41
     2.301621         23.71
     2.299108         50.98
     2.289632          1.69
     2.286359         18.95
     2.266313          2.73
     2.252613         30.24
     2.250751         13.61
     2.237660         27.75
     2.221534          8.12
     2.196295          0.04
     2.191195         16.94
     2.190444          0.41
     2.190317         42.95
     2.172381          4.16
     2.146445         36.97
     2.132956         12.57
     2.120141          0.04
     2.110865         28.33
     2.094685          3.06
     2.083098         30.67
     2.070857          8.98
     2.062112         54.82
     2.059613          4.18
     2.047735         17.13
     2.035177          1.60
     2.029730          0.02
     2.024920          9.86
     2.018527          3.06
     2.003329         15.94
     1.997372          4.60
     1.990917          0.30
     1.978968         47.72
     1.978009         30.28
     1.975750         28.34
     1.973692         20.73
     1.970875        108.72
     1.958351         34.80
     1.948865          0.27
     1.932256          7.98
     1.927225          6.70
     1.926578         13.00
     1.924220          2.89
     1.916641         32.71
     1.915787          3.00
     1.914880          8.17
     1.904599          4.87
     1.903667          7.82
     1.889391         32.56
     1.869147          1.95
     1.868219          1.08
     1.861784          6.85
     1.851588          0.01
     1.842942         16.28
     1.837606         22.20
     1.834615          8.20
     1.823172          0.42
     1.817196         23.69
     1.809303          6.10
     1.809267          3.35
     1.809063          1.87
     1.808681          0.15
     1.799599          1.88
     1.798523         38.31
     1.794587          5.68
     1.790884         43.24
     1.779506          3.34
     1.778197          6.90
     1.766796         18.87
     1.765692          2.25
     1.764065          1.33
     1.760125          5.81
     1.752805          0.00
     1.738900          0.20
     1.737905          1.71
     1.736867          2.28
     1.729645          0.66
     1.726715          0.57
     1.715703          6.46
     1.704561          0.22
     1.701870          2.87
     1.697349          7.45
     1.697006         11.57
     1.696382          0.00
     1.695423          3.02
     1.684265          0.31
     1.682053          0.56
     1.681870          6.27
     1.681706          0.00
     1.681399          0.99
     1.676096          2.53
     1.676011          2.36
     1.675191          0.11
     1.666028          2.94
     1.663789          1.00
     1.658351          5.46
     1.656861          4.83
     1.656825          7.34
     1.656659          0.07
     1.651669         11.32
     1.649199          0.09
     1.645375          0.32
     1.638780          0.59
     1.632193          3.61
     1.621607          0.37
     1.619418          3.84
     1.610536         27.06
     1.603681          1.31
     1.590842         15.95
     1.590046          0.37
     1.582831         37.15
     1.580007          8.92
     1.579546          2.22
     1.578228          2.63
     1.564968         28.12
     1.563299          4.25
     1.558600          9.37
     1.555083          3.86
     1.553842          2.41
     1.553582          7.11
     1.552010          8.90
     1.549844         28.14
     1.549456          0.26
     1.548354         29.21
     1.546618         15.08
     1.543456         14.02
     1.543249         21.36
     1.542507          0.90
     1.542319          7.60
     1.538311          2.67
     1.535329          1.19
     1.528780         24.76
     1.527978          0.20
     1.520780          2.84
     1.520128          5.91
     1.518684          1.60
     1.518564         30.44
     1.518338          0.64
     1.516438          0.15
     1.514641          2.46
     1.513940          0.23
     1.511749         16.15
     1.510091          1.64
     1.507445          6.27
     1.502801          0.00
     1.500169          2.04
     1.499157          5.66
     1.497438         14.73
     1.495829          0.47
     1.495409         11.83
     1.494915          0.00
     1.492764         27.50
     1.491654         14.80
     1.485362          2.06
     1.481051          3.86
     1.474471          2.68
     1.471261          0.89
     1.469336          0.10
     1.469336          1.09
     1.467339          0.45
     1.467169          0.75
     1.467114          0.78
     1.466232          0.04
     1.464758         26.25
     1.461649          7.65
     1.451095          7.36
     1.450663          0.02
     1.450059         12.09
     1.448254          0.97
     1.445419         10.86
     1.442753         26.83
     1.441078         16.81
     1.437508          0.69
     1.436909          3.01
     1.434006          4.30
     1.431353          1.83
     1.430963          1.50
     1.429507         16.53
     1.427236          9.72
     1.426620          0.01
     1.426090          4.51
     1.424532          1.55
     1.418766          0.00
     1.417610         12.46
     1.417412          9.79
     1.416287          4.29
     1.414130          0.72
     1.413586          4.13
     1.413428          2.31
     1.412928         15.15
     1.406715         15.00
     1.404028          0.22
     1.402521         15.15
     1.402398          1.60
     1.400266          0.65
     1.398606          0.31
     1.397864          3.23
     1.396338          9.85
     1.395151          0.16
     1.394078         12.17
     1.391351          0.61
     1.387463          0.73
     1.379590          1.62
     1.378305          1.84
     1.376686          1.32
     1.371219          6.55
     1.368034          0.25
     1.365511         16.30
     1.362152          0.53
     1.359801          3.20
     1.356759          1.77
     1.355053          6.89
     1.354979          1.45
     1.354315          0.45
     1.353761          9.97
     1.353676          5.40
     1.353516          9.31
     1.353153          2.70
     1.349498          0.02
     1.344397          6.06
     1.341933          8.60
     1.340597          0.02
     1.340006         18.06
     1.335747         12.21
     1.335703          3.87
     1.334510          0.96
     1.334176          0.38
     1.333238          3.10
     1.331582          1.12
     1.331105          0.18
     1.330852          0.83
     1.330244          4.42
     1.328405          2.09
     1.326684         10.01
     1.322253          1.60
     1.320704          4.80
     1.318001          1.99
     1.317167          1.63
     1.317025          3.49
     1.316643          4.26
     1.315795          5.28
     1.314244          1.32
     1.312587          0.40
     1.311188          1.02
     1.309301          1.58
     1.305337          5.98
     1.304916          2.58
     1.304477          1.99
     1.302290          5.74
     1.301818         12.32
     1.301561          1.56
     1.300484          0.59
     1.300159          1.84
     1.299209          0.05
     1.297929         12.98
     1.297927         11.17
     1.296575          3.68
     1.294849         10.25
     1.292807          1.92
     1.290522          0.92
     1.289782          2.92
     1.286944          0.24
     1.286642          0.11
     1.285707          1.78
     1.281745          4.82
     1.278247          0.02
     1.278096          0.01
     1.277732          0.21
     1.277077          1.53
     1.275797          5.93
     1.275522         10.39
     1.271022          1.64
     1.269542          0.69
     1.269111          3.88
     1.268912          0.52
     1.268629          0.14
     1.267202          2.49
     1.266893          7.93
     1.265995          0.00
     1.265367          1.01
     1.261848          4.60
     1.260515         17.02
     1.258512          0.23
     1.257876          0.66
     1.257050          0.84
     1.254548          0.70
     1.251177          0.76
     1.250209          0.07
     1.249444          0.06
     1.248403          2.41
     1.248338          1.69
     1.248203          2.61
     1.247434          1.36
     1.247198          0.16
     1.245662          1.11
     1.245479          0.92
     1.245137          8.80
     1.243843          4.11
     1.241360          0.73
     1.241148          2.61
     1.240951         11.26
     1.235303          5.56
     1.234927          0.02
     1.234014          4.19
     1.233739          1.57
     1.233457          0.83
     1.232579          0.15
     1.226324          0.08
     1.225837          1.01
     1.225695          1.37
     1.224016          0.26
     1.221247          2.11
     1.219909          0.05
     1.219381          2.18
     1.216310          0.31
     1.216209          0.28
     1.216197          0.46
     1.216100          3.46
     1.215846          0.30
     1.212474          2.73
     1.212321          5.61
     1.211899          1.10
     1.211374          0.16
     1.211214          0.07
     1.209887          2.91
     1.208614          1.20
     1.208245          2.37
     1.206682          0.31
     1.206634          0.93
     1.205766          5.86
     1.205708          0.04
     1.204795          0.42
     1.204076          3.35
     1.204016          0.05
     1.203904          2.71
     1.201074          3.92
     1.199015          1.98
     1.197520          0.01
     1.197454          1.41
     1.195953          0.00
     1.194786          0.01
     1.194038          0.03
     1.193923          0.22
     1.193405          0.92
     1.192857          0.96
     1.192377          0.09
     1.191317          0.04
     1.190471          1.33
     1.188675          4.50
     1.185591          0.50
     1.184296          3.64
     1.182835          6.02
     1.177864          0.04
     1.177128          6.20
     1.176669          0.40
     1.176118          0.49
     1.174829          1.63
     1.173993          0.38
     1.173303          0.00
     1.173262          0.87
     1.171040          0.02
     1.170893          3.22
     1.170670          0.07
     1.169805          1.07
     1.169546          5.29
     1.169319          0.99
     1.169003          0.02
     1.168057          1.40
     1.164282          0.81
     1.161250          1.67
     1.160453          4.98
     1.160282          0.06
     1.158928          0.49
     1.158292          2.32
     1.157437          0.60
     1.156874          2.42
     1.156673          0.00
     1.156335          0.56
     1.156176          0.39
     1.154071          1.89
     1.153151          4.06
     1.151694          0.01
     1.151090          5.79
     1.150810          1.34
     1.150282          3.51
     1.150014          0.91
     1.149668          0.15
     1.149639          0.08
     1.149554          1.08
     1.148757          0.19
     1.148142          1.26
     1.146378          0.26
     1.145220          0.64
     1.144816          2.76
     1.143663          0.14
     1.143179          2.92
     1.141918          0.83
     1.141783          3.14
     1.141318          1.74
     1.141241          4.28
     1.141183          0.32
     1.139392         11.23
     1.135459          0.28
     1.134591          0.24
     1.134129          0.58
     1.133157          0.67
     1.132142          1.10
     1.131404          0.84
     1.128801          0.21
     1.126305          4.03
     1.126029          0.66
     1.125375          0.26
     1.123918          0.16
     1.123076          6.03
     1.122931          2.33
     1.120083          0.03
     1.119721          0.25
     1.119590          3.65
     1.119126          0.44
     1.118830          0.35
     1.118441          0.37
     1.117630          0.01
     1.117484          0.02
     1.117070          3.05
     1.116512          3.47
     1.116418          0.36
     1.114824          2.80
     1.114363          2.56
     1.113433          1.08
     1.111295          0.01
     1.110767          3.68
     1.108737          0.05
     1.108179          1.21
     1.107630          0.14
     1.107580          3.23
     1.106582          6.46
     1.106557          8.12
     1.105808          0.44
     1.105783          0.19
     1.104574          8.95
     1.104211          0.02
     1.103939          0.25
     1.103556          0.59
     1.102444          2.15
     1.101964          0.02
     1.101413          1.18
     1.100690          1.16
##############################################################################
###                            Comments                                    ###
##############################################################################
###   Diffraction pattern calculated by Match!. 
###   I/Ic calculated by Match!. 
##############################################################################


