##############################################################################
###               Crystal structure data exported by Match!                ###
##############################################################################
###                           Data published by:                           ###
###                                                                        ###
###               COD (Crystallography Open Database)
##############################################################################
data_9005024
_citation_journal_full    'European Journal of Mineralogy'
_citation_journal_volume  '2'
_citation_page_first  '63'
_citation_page_last   '77'
_citation_year  '1990'
_citation_title  'An X-ray study of the temperature dependence of the quartz structureSample: at T = 838 K'
loop_
_publ_author_name
  'Kihara K.'
_chemical_formula_sum  'O2 Si'
_chemical_name_mineral  'Quartz'
_symmetry_space_group_name_H-M 'P 32 2 1 S'
_space_group_IT_number 154
_space_group_crystal_system 'trigonal (hexagonal axes)'
loop_
_symmetry_equiv_pos_as_xyz
   'x, y, z'
   'y, x, -z+0.66667'
   '-y, x-y, z+0.66667'
   '-x, -x+y, -z+0.33333'
   '-x+y, -x, z+0.33333'
   'x-y, -y, -z'
_cell_length_a        4.98410
_cell_length_b        4.98410
_cell_length_c        5.45000
_cell_angle_alpha    90.0000
_cell_angle_beta     90.0000
_cell_angle_gamma   120.0000
loop_
_atom_site_label
_atom_site_fract_x
_atom_site_fract_y
_atom_site_fract_z
_atom_site_occupancy
_atom_site_B_iso_or_equiv
si      0.485   0.000   0.000    1.00000    1.552
o      0.417   0.240   0.142    1.00000    3.670
_cell_measurement_wavelength    1.541874
_cell_measurement_radiation   'x-rays'
_cell_measurement_temperature    838.000000
_exptl_crystal_density_diffrn    2.553000
loop_
_pd_peak_d_spacing
_pd_peak_intensity
     4.316357        193.62
     3.383686       1000.00
     2.492050         43.01
     2.304227         31.51
     2.266358         10.02
     2.158179         39.74
     2.006577         28.59
     1.838996        139.02
     1.816667          0.79
     1.691843         15.94
     1.674408          7.06
     1.631430          1.15
     1.562908         63.96
     1.468007          6.01
     1.438786          7.63
     1.399748         36.75
     1.391125         15.59
     1.389826         57.51
     1.299305          7.98
     1.272326         17.36
     1.246025         15.06
     1.214683          1.92
     1.213818         17.35
     1.197142          8.48
     1.195487         18.25
     1.169266         23.12
     1.152114          1.32
     1.133179          0.33
     1.127895          0.72
     1.096037         12.52
     1.079089          6.86
     1.058540          1.91
     1.056824          9.02
     1.045763         10.76
     1.027551          9.08
##############################################################################
###                            Comments                                    ###
##############################################################################
###   Diffraction pattern calculated by Match!. 
###   I/Ic calculated by Match!. 
###   Space group has been derived from given symmetry operations. 
##############################################################################


