##############################################################################
###               Crystal structure data exported by Match!                ###
##############################################################################
###                           Data published by:                           ###
###                                                                        ###
###               COD (Crystallography Open Database)
##############################################################################
data_9000576
_citation_journal_full    'American Mineralogist'
_citation_journal_volume  '62'
_citation_page_first  '807'
_citation_page_last   '811'
_citation_year  '1977'
_citation_title  'A refinement of the structure of dioptase, Cu6[Si6O18]*6H2ONote: sample is from Reneville, Congo'
loop_
_publ_author_name
  'Ribbe P. H.'
  'Gibbs G. V.'
  'Hamil M.'
_chemical_formula_sum  'Cu H2 O4 Si'
_chemical_name_mineral  'Dioptase'
_symmetry_space_group_name_H-M 'R -3'
_space_group_IT_number 148
_space_group_crystal_system 'trigonal (hexagonal axes)'
loop_
_symmetry_equiv_pos_as_xyz
   'x, y, z'
   'x+0.66667, y+0.33333, z+0.33333'
   'x+0.33333, y+0.66667, z+0.66667'
   '-y, x-y, z'
   '-y+0.66667, x-y+0.33333, z+0.33333'
   '-y+0.33333, x-y+0.66667, z+0.66667'
   '-x+y, -x, z'
   '-x+y+0.66667, -x+0.33333, z+0.33333'
   '-x+y+0.33333, -x+0.66667, z+0.66667'
   '-x, -y, -z'
   '-x+0.66667, -y+0.33333, -z+0.33333'
   '-x+0.33333, -y+0.66667, -z+0.66667'
   'y, -x+y, -z'
   'y+0.66667, -x+y+0.33333, -z+0.33333'
   'y+0.33333, -x+y+0.66667, -z+0.66667'
   'x-y, x, -z'
   'x-y+0.66667, x+0.33333, -z+0.33333'
   'x-y+0.33333, x+0.66667, -z+0.66667'
_cell_length_a       14.56600
_cell_length_b       14.56600
_cell_length_c        7.77800
_cell_angle_alpha    90.0000
_cell_angle_beta     90.0000
_cell_angle_gamma   120.0000
loop_
_atom_site_label
_atom_site_fract_x
_atom_site_fract_y
_atom_site_fract_z
_atom_site_occupancy
_atom_site_B_iso_or_equiv
cu      0.406   0.403   0.063    1.00000    0.321
si      0.176   0.217   0.041    1.00000    0.298
o      0.071   0.181   -0.083    1.00000    0.680
o      0.281   0.299   -0.064    1.00000    0.417
o      0.160   0.268   0.214    1.00000    0.572
o      0.142   0.182   0.579    1.00000    1.619
h      0.146   0.106   0.559    1.00000    0.968
h      0.109   0.162   0.680    1.00000    1.324
_cell_measurement_wavelength    1.541874
_cell_measurement_radiation   'x-rays'
_exptl_crystal_density_diffrn    3.297000
loop_
_pd_peak_d_spacing
_pd_peak_intensity
     7.283000       1000.00
     6.620632          8.62
     4.898963        361.81
     4.204842         67.48
     4.064910        280.75
     3.716394         27.36
     3.641500         78.74
     3.310316         53.75
     3.190709        215.37
     3.013622         33.31
     2.922543         37.80
     2.752715         87.96
     2.712312        221.25
     2.601004        607.82
     2.592667         37.56
     2.449482          0.26
     2.442514        150.96
     2.427667          3.52
     2.399817        122.34
     2.321688         13.32
     2.279267        135.06
     2.206877         44.32
     2.175232         21.74
     2.116543        216.41
     2.112043         21.40
     2.102421          1.81
     2.032455         81.41
     2.019941        117.03
     2.003813          5.34
     1.957654         29.96
     1.921802          0.73
     1.887338         18.50
     1.867430         25.22
     1.858197          3.79
     1.829899         12.97
     1.820750         24.32
     1.800517         10.13
     1.772082         21.38
     1.755572         73.34
     1.724281         81.33
     1.706688         40.09
     1.699632        142.86
     1.670835          8.45
     1.655158          1.01
     1.635065         51.96
     1.632988          0.07
     1.614002         13.87
     1.595355         30.48
     1.593425         18.77
     1.589281         26.94
     1.581390          1.40
     1.545379          1.34
     1.543905          1.83
     1.540134          0.05
     1.511722          0.52
     1.510341          8.31
     1.506811        111.28
     1.491604         13.53
     1.490026         57.12
     1.478876          7.60
     1.475561          0.36
     1.461272          2.28
     1.456600         41.90
     1.450518         36.67
     1.432718         12.65
     1.422578          1.51
     1.421427         71.24
     1.418483          3.34
     1.404454         48.16
     1.401614          5.87
     1.396192         66.15
     1.395105          0.08
     1.380297         12.72
     1.376358         22.06
     1.370193          1.00
     1.367555         27.32
     1.356156          6.78
     1.354970        107.66
     1.333239         21.46
     1.324126          0.30
     1.321745         16.69
     1.308065          6.16
     1.303655         10.21
     1.302770         30.49
     1.300502         13.20
     1.296333         14.03
     1.282414          6.76
     1.276274         23.83
     1.269908          5.86
     1.263791          0.71
     1.251966         13.32
     1.245183         29.84
     1.244411          7.47
     1.242434          1.70
     1.238798          9.25
     1.232975          3.40
##############################################################################
###                            Comments                                    ###
##############################################################################
###   Diffraction pattern calculated by Match!. 
###   I/Ic calculated by Match!. 
##############################################################################


