##############################################################################
###               Crystal structure data exported by Match!                ###
##############################################################################
###                           Data published by:                           ###
###                                                                        ###
###               COD (Crystallography Open Database)
##############################################################################
data_9000051
_citation_journal_full    'American Mineralogist'
_citation_journal_volume  '37'
_citation_page_first  '423'
_citation_page_last   '426'
_citation_year  '1952'
_citation_title  'A preliminary structure for pucherite, BiVO4'
loop_
_publ_author_name
  'Qurashi M. M.'
  'Barnes W. H.'
_chemical_formula_sum  'Bi O4 V'
_chemical_name_mineral  'Pucherite'
_symmetry_space_group_name_H-M 'P n c a'
_space_group_IT_number 60
_space_group_crystal_system 'orthorhombic'
loop_
_symmetry_equiv_pos_as_xyz
   'x, y, z'
   '-x+0.5, -y, z'
   'x+0.5, -y+0.5, -z+0.5'
   '-x, y+0.5, -z+0.5'
   '-x, -y, -z'
   'x+0.5, y, -z'
   '-x+0.5, y+0.5, z+0.5'
   'x, -y+0.5, z+0.5'
_cell_length_a        5.33200
_cell_length_b        5.06000
_cell_length_c       12.02000
_cell_angle_alpha    90.0000
_cell_angle_beta     90.0000
_cell_angle_gamma    90.0000
loop_
_atom_site_label
_atom_site_fract_x
_atom_site_fract_y
_atom_site_fract_z
_atom_site_occupancy
_atom_site_B_iso_or_equiv
bi      0.250   0.000   0.108    1.00000    1.000
v      0.250   0.000   0.392    1.00000    1.000
o      0.000   0.000   0.000    1.00000    1.000
o      0.000   0.000   0.500    1.00000    1.000
o      -0.033   0.283   0.217    1.00000    1.000
_cell_measurement_wavelength    1.541874
_cell_measurement_radiation   'x-rays'
_exptl_crystal_density_diffrn    6.634000
loop_
_pd_peak_d_spacing
_pd_peak_intensity
     6.010000        114.22
     4.663621        514.04
     3.988553        554.80
     3.510345       1000.00
     3.141159         59.46
     3.132408          5.18
     3.005000        191.78
     2.706432        973.69
     2.666000        164.85
     2.617877         41.32
     2.530000        258.91
     2.436990         16.59
     2.358646          1.02
     2.331811         77.98
     2.325126          6.20
     2.314507        180.59
     2.245501          1.62
     2.195614          1.29
     2.171396        121.94
     2.136444        227.03
     2.032602         43.67
     2.011032         30.15
     2.003333         32.95
     1.994277        293.07
     1.985386          0.67
     1.935392        164.27
     1.875336         53.97
     1.855374          0.35
     1.835176        176.31
     1.819254         21.19
     1.814154          0.00
     1.758451          3.15
     1.755173          0.10
     1.704367         58.32
     1.683621         95.73
     1.670303         33.58
     1.668485          0.03
     1.660811         97.33
     1.656493          0.12
     1.626063          0.25
     1.615201          0.26
     1.601561         50.81
     1.593925         83.83
     1.570579         22.59
     1.566204        189.09
     1.555345        202.01
     1.554540         10.40
     1.553476          0.22
     1.546880        161.75
     1.529785          4.66
     1.526902          0.03
     1.506580         44.08
     1.502500         24.85
     1.492406        141.28
     1.464326          0.54
     1.458716          0.03
     1.446180         16.65
     1.443806          0.15
     1.425363          0.07
     1.417864          0.46
     1.415446         34.26
     1.413538         52.45
     1.390503          1.10
     1.388221          0.01
     1.386892          0.11
     1.380727         21.61
     1.375351          8.20
     1.372896          0.00
     1.367064          0.08
     1.353216         61.25
     1.342916          7.96
     1.336640          7.35
     1.333000         37.55
     1.329518         12.31
     1.309082          9.85
     1.308939         17.12
     1.301374          3.13
     1.291862         28.43
     1.291332         19.46
     1.289021          0.21
     1.287832          0.04
     1.285872          0.46
     1.281672         24.82
     1.267226          0.00
     1.265000         30.49
     1.260358          0.32
     1.255536         23.41
     1.255049          2.77
     1.254067          0.41
     1.253856          0.02
     1.244349          0.02
     1.237876          2.57
     1.227081          6.80
     1.226055         37.62
     1.224432          0.32
     1.218495         24.45
     1.217162         34.41
     1.205807         31.49
     1.203284          0.03
     1.202000         19.26
     1.199721         75.34
     1.198862          0.04
     1.184631          0.13
     1.179323         37.96
     1.176909         23.24
     1.176570          0.18
     1.173766         69.70
     1.173687          0.00
     1.172575          3.20
     1.170115         52.40
     1.165905         21.06
     1.162563         21.57
     1.162176         30.12
     1.161396          0.01
     1.157253          7.97
     1.153140          0.01
     1.147433          9.78
     1.142870         23.76
     1.142304          0.32
     1.138994          5.08
     1.137739          0.00
     1.136017         26.72
     1.133135          0.10
     1.131333          0.01
     1.122750          1.86
     1.119022          0.26
     1.109784          0.00
     1.109776          8.23
     1.099034          0.01
     1.097872          0.24
     1.097807         41.69
     1.096748          0.27
     1.095776         15.99
     1.095585          0.05
     1.090368          3.02
     1.085698         23.10
     1.084010          0.02
     1.079865          0.01
     1.070951          0.01
     1.069607          7.42
     1.068222         54.56
     1.068105          1.85
     1.063868          5.79
     1.058783          0.02
     1.049999          9.74
     1.048714         14.84
     1.047299         42.32
     1.047053         12.24
     1.045820          0.06
     1.044983         10.50
     1.044703          1.45
     1.044136          0.12
     1.041884         13.59
     1.039568         19.89
     1.034079          0.00
     1.032167          0.02
     1.030881          0.06
     1.030337          0.09
     1.028097          0.01
     1.027430          1.39
     1.026844          0.10
     1.016301         11.60
     1.015785         20.61
     1.011916          4.66
     1.009794         35.28
     1.008432          5.88
##############################################################################
###                            Comments                                    ###
##############################################################################
###   Diffraction pattern calculated by Match!. 
###   I/Ic calculated by Match!. 
###   Space group has been derived from given symmetry operations. 
##############################################################################


