##############################################################################
###               Crystal structure data exported by Match!                ###
##############################################################################
###                           Data published by:                           ###
###                                                                        ###
###               COD (Crystallography Open Database)
##############################################################################
data_9016604
_citation_journal_full    'American Mineralogist'
_citation_journal_volume  '97'
_citation_page_first  '707'
_citation_page_last   '712'
_citation_year  '2012'
_citation_title  'Crystal structure and thermal expansion of aragonite-group carbonatesby single-crystal X-ray diffractionNote: T = 300 K'
loop_
_publ_author_name
  'Ye Y.'
  'Smyth J. R.'
  'Boni P.'
_chemical_formula_sum  'C Ca0.001 O3 Pb'
_chemical_name_mineral  'Cerussite'
_symmetry_space_group_name_H-M 'P m c n'
_space_group_IT_number 62
_space_group_crystal_system 'orthorhombic'
loop_
_symmetry_equiv_pos_as_xyz
   'x, y, z'
   '-x+0.5, -y+0.5, z+0.5'
   'x+0.5, -y, -z'
   '-x, y+0.5, -z+0.5'
   '-x, -y, -z'
   'x+0.5, y+0.5, -z+0.5'
   '-x+0.5, y, z'
   'x, -y+0.5, z+0.5'
_cell_length_a        5.18200
_cell_length_b        8.49530
_cell_length_c        6.14360
_cell_angle_alpha    90.0000
_cell_angle_beta     90.0000
_cell_angle_gamma    90.0000
loop_
_atom_site_label
_atom_site_fract_x
_atom_site_fract_y
_atom_site_fract_z
_atom_site_occupancy
_atom_site_B_iso_or_equiv
pb      0.250   0.417   0.754    0.99900    1.050
ca      0.250   0.417   0.754    0.00100    1.050
c      0.250   0.765   -0.090    1.00000    1.184
o      0.250   0.912   -0.095    1.00000    1.737
o      0.463   0.686   -0.087    1.00000    1.563
_cell_measurement_wavelength    1.541874
_cell_measurement_radiation   'x-rays'
_exptl_crystal_density_diffrn    6.563000
loop_
_pd_peak_d_spacing
_pd_peak_intensity
     4.978233          0.28
     4.423923        146.44
     4.247650         69.72
     3.590018       1000.00
     3.493878        486.27
     3.071800        180.80
     2.896925          3.89
     2.888753         16.57
     2.642423         13.57
     2.591000        147.61
     2.571725          3.61
     2.523183        169.65
     2.489117         85.32
     2.484942        259.47
     2.303638          0.00
     2.298340          2.78
     2.243699          0.02
     2.211962         64.81
     2.123825         20.45
     2.082055          0.79
     2.081178        283.76
     2.007268        130.58
     1.990840          0.44
     1.980543        136.63
     1.931948        246.53
     1.928820          0.73
     1.871752          1.45
     1.858411        180.11
     1.844672         83.87
     1.825261          2.48
     1.795009         42.79
     1.746939         21.13
     1.737846          1.03
     1.692698         19.59
     1.659411          0.00
     1.655403          0.10
     1.642533         16.74
     1.637589          0.80
     1.631890         92.44
     1.622980          0.01
     1.614493         14.25
     1.586799         86.37
     1.580360          0.04
     1.578646          0.33
     1.561475         79.79
     1.548434          1.59
     1.535900         20.40
     1.511397          1.87
     1.505618          0.26
     1.502727         54.06
     1.486783          0.02
     1.482514         23.51
     1.474641         43.04
     1.474182         24.68
     1.472580          0.01
     1.450943         27.34
     1.448463         21.70
     1.444376         13.37
     1.433913          0.21
     1.429124         23.43
     1.419106          0.30
     1.417923          0.47
     1.415883         20.46
     1.397388          0.01
     1.391341          0.44
     1.384282          0.38
     1.379716          0.01
     1.350100          0.21
     1.333268          0.00
     1.329393         66.06
     1.321212         30.71
     1.309289          0.01
     1.307605          0.08
     1.306486         60.71
     1.305517          0.04
     1.304698         52.44
     1.295500         19.21
     1.289555          0.17
     1.285862         28.43
     1.281308         48.68
     1.267863         44.28
     1.261591         11.67
     1.260852          0.33
     1.253743          0.00
     1.248014          0.58
     1.244558          5.95
     1.242471         32.61
     1.239148          5.00
     1.228282          0.02
     1.217816          0.12
     1.216066          0.32
     1.214687         34.62
     1.211289          4.31
     1.210146          0.14
     1.197305          0.79
     1.196673          0.18
     1.193685         19.03
     1.190606          0.00
     1.188411         32.34
     1.183904         30.69
     1.182073          0.24
     1.181641          4.18
     1.180329         14.56
     1.167368          0.16
     1.164626          0.09
     1.160373         28.09
     1.156991          0.05
     1.151819         33.75
     1.150852          0.23
     1.149170         10.57
     1.147783          0.16
     1.139373          0.06
     1.137449          9.22
     1.136283          0.00
     1.128716          0.05
     1.127183          0.08
     1.126845         10.38
     1.121850          8.44
     1.121330          0.16
     1.112793          9.74
     1.108043          0.03
     1.105981          3.98
     1.102858          8.22
     1.101428          0.00
     1.100847          1.06
     1.099953          0.11
     1.088484         26.56
     1.085841          0.11
     1.081853          0.06
     1.078032          0.06
     1.074125         24.25
     1.063726         30.96
     1.063554         12.16
     1.062250          0.07
     1.061913          2.63
     1.060172         21.75
     1.046396         11.44
     1.044048          0.05
     1.042984          0.36
     1.042566         19.59
     1.041837          0.14
     1.041028         13.72
     1.040589          6.92
     1.034791          0.22
     1.033610          0.17
     1.031446          0.63
     1.028773          1.89
     1.025694          0.15
     1.023933          8.92
     1.023482         22.88
     1.021159          0.00
     1.020636          0.11
     1.016576          0.14
     1.016010          0.04
     1.014645         19.88
     1.009758          0.09
##############################################################################
###                            Comments                                    ###
##############################################################################
###   Tsumeb, Namibia
###   Diffraction pattern calculated by Match!. 
###   I/Ic calculated by Match!. 
###   Space group has been derived from given symmetry operations. 
##############################################################################


