##############################################################################
###               Crystal structure data exported by Match!                ###
##############################################################################
###                           Data published by:                           ###
###                                                                        ###
###               COD (Crystallography Open Database)
##############################################################################
data_1524664
_citation_journal_full    'Neues Jahrbuch fuer Mineralogie. Abhandlungen (Band-Nr) (1950-)'
_citation_journal_volume  '134'
_citation_page_first  '147'
_citation_page_last   '156'
_citation_year  '1979'
_citation_title  'Ladungsbilanzen an den verfeinerten Kristallstrukturen von libethenit, Adamin und Co2 ((O H)/As O4) und ihre Wasserstoffbrueckenbindungen'
loop_
_publ_author_name
  'Keller P.'
  'Zettler F.'
  'Hess H.'
_chemical_formula_sum  'As Co2 H O5'
_chemical_name_common  'Co2 (O H) As O4'
_symmetry_space_group_name_H-M 'P n n m'
_space_group_IT_number 58
_space_group_crystal_system 'orthorhombic'
loop_
_symmetry_equiv_pos_as_xyz
   'x, y, z'
   '-x, -y, z'
   'x+0.5, -y+0.5, -z+0.5'
   '-x+0.5, y+0.5, -z+0.5'
   '-x, -y, -z'
   'x, y, -z'
   '-x+0.5, y+0.5, z+0.5'
   'x+0.5, -y+0.5, z+0.5'
_cell_length_a        8.28600
_cell_length_b        8.59400
_cell_length_c        6.05100
_cell_angle_alpha    90.0000
_cell_angle_beta     90.0000
_cell_angle_gamma    90.0000
_cell_formula_units_Z 4
loop_
_atom_site_label
_atom_site_fract_x
_atom_site_fract_y
_atom_site_fract_z
_atom_site_occupancy
_atom_site_B_iso_or_equiv
o      0.391   0.372   0.500    1.00000    1.000
co      0.000   0.000   0.247    1.00000    1.000
co      0.364   0.135   0.500    1.00000    1.000
o      0.452   0.352   0.000    1.00000    1.000
o      0.230   0.139   0.224    1.00000    1.000
as      0.247   0.255   0.000    1.00000    1.000
o      0.101   0.393   0.000    1.00000    1.000
_cell_measurement_wavelength    1.541874
_cell_measurement_radiation   'x-rays'
_exptl_crystal_density_diffrn    4.205000
loop_
_pd_peak_d_spacing
_pd_peak_intensity
     5.965001        621.72
     4.947633        479.64
     4.886691        550.33
     4.297000         58.57
     4.247972        600.75
     4.143000         68.07
     3.814577        236.74
     3.731976        199.65
     3.226892          0.80
     3.176426          2.27
     3.025500        235.86
     2.982501       1000.00
     2.707430        197.89
     2.698264        514.63
     2.675191        110.28
     2.629535        298.20
     2.589172        139.29
     2.512623        186.73
     2.473817        573.45
     2.471330        531.29
     2.443345        247.89
     2.411662        490.87
     2.370428          8.51
     2.356255         26.46
     2.350206        165.65
     2.323423         23.77
     2.195662          0.43
     2.169023          6.68
     2.148500          0.34
     2.123986          2.57
     2.079724          2.64
     2.071500         57.88
     2.017555         52.21
     2.013824          3.08
     1.988334          7.42
     1.984695          6.97
     1.966798         61.80
     1.963643         59.40
     1.959773         27.42
     1.910782         34.68
     1.910722         29.15
     1.907288          0.06
     1.888967         94.60
     1.865988          3.35
     1.858995         35.63
     1.842744         14.99
     1.819064         12.04
     1.783129          6.53
     1.783080          0.23
     1.774425          0.28
     1.751742         28.69
     1.713861          0.96
     1.709250         59.13
     1.695841          0.46
     1.682973         51.04
     1.678606          0.30
     1.676415          0.83
     1.670797         20.78
     1.661624        199.18
     1.653391          3.22
     1.649211         38.57
     1.632924         59.85
     1.628897         36.19
     1.627223         55.71
     1.621427        174.48
     1.617520         14.86
     1.617484        151.67
     1.613446        378.38
     1.600403         94.06
     1.598341         12.37
     1.588213        211.25
     1.587596         25.56
     1.571395        215.03
     1.546196         11.83
     1.535622          2.20
     1.532271          3.64
     1.523132          0.47
     1.512750        172.70
     1.498062          0.19
     1.491250        175.20
     1.479306          5.84
     1.470741         12.95
     1.467824          3.25
     1.466331         15.57
     1.459306          7.01
     1.447928          0.28
     1.447902         20.30
     1.434465          3.39
     1.433097         20.60
     1.432333          0.85
     1.426908          3.88
     1.425110          4.10
     1.420988          3.56
     1.418634         18.67
     1.415991         40.49
     1.411401         15.21
     1.406210         12.50
     1.405806         42.90
     1.401953         15.42
     1.395780         11.66
     1.385820          3.24
     1.381000          2.07
     1.376818         51.32
     1.374506          0.00
     1.369732          0.72
     1.363508         10.04
     1.353715         53.30
     1.349132        126.89
     1.337595         76.71
     1.330156          0.49
     1.322755          0.12
     1.321059          9.31
     1.320592         33.52
     1.314767         54.73
     1.314398         42.34
     1.312205          1.47
     1.311247         47.77
     1.308228          1.13
     1.298019         15.05
     1.296159         23.29
     1.294586         42.49
     1.292240          9.35
     1.292221         90.30
     1.290241          3.74
     1.284789          2.81
     1.282398         15.16
     1.280444          7.88
     1.279069          2.38
     1.272980          5.61
     1.271526          2.25
     1.267726          0.65
     1.266464         76.35
     1.256312         33.37
     1.247511          0.08
     1.244349          1.35
     1.243992          1.76
     1.243099          3.94
     1.236908          1.96
     1.235665          4.94
     1.227121          0.27
     1.223353          0.26
     1.221673         14.26
     1.218508          0.76
     1.214456          4.17
     1.211985          1.03
     1.209513          0.30
     1.205831          0.75
     1.203923          1.56
     1.203853          5.17
     1.203198          2.38
     1.199107          0.23
     1.198376          2.11
     1.197495          6.22
     1.193000          2.67
     1.190711         16.06
     1.186037         14.42
     1.185214          0.33
     1.182310         15.07
     1.178127          0.80
     1.177118          0.25
     1.175103          1.48
     1.172643          0.18
     1.172211          0.24
     1.170468          0.79
     1.168983          8.27
     1.161711          0.15
     1.161695          4.30
     1.156413          1.34
     1.156399          0.11
     1.155458          1.42
     1.153539          0.09
     1.151225         11.53
     1.151185          0.04
     1.150533          0.47
     1.141205          0.36
     1.140876          0.28
     1.129613          0.16
     1.128878          0.39
     1.127046         19.77
     1.125058         19.17
     1.124026          4.26
     1.123751          0.23
     1.121876         14.80
     1.121435          0.01
     1.121399          6.51
     1.114802          4.57
     1.109835         15.22
     1.108465          7.03
     1.107936         20.88
     1.106113          5.21
     1.104848         26.14
     1.103077         22.47
     1.101430          3.39
     1.099922          8.80
     1.099358         34.68
     1.097831         72.62
     1.097014          0.51
     1.095180         11.08
     1.093996         21.27
     1.093389         20.40
     1.084511         68.81
     1.083662          0.66
     1.081307          6.88
     1.076556          3.32
     1.076543         21.72
     1.076511          0.57
     1.075631          0.96
     1.074250         34.72
     1.073328          0.89
     1.067771          0.44
     1.066691          0.15
     1.065334          4.19
     1.061993         96.21
     1.059912          1.11
     1.058809          0.00
     1.056157          0.03
     1.051888          0.03
     1.050271          3.53
     1.049197          5.44
     1.048718          3.43
     1.045995          3.86
     1.040895          2.35
     1.040427          9.50
     1.040418          9.60
     1.040080          0.16
     1.039862          1.49
     1.037305          5.48
     1.036773          0.08
     1.035750         24.90
     1.033772          8.69
     1.031982          7.80
     1.028805          1.39
     1.028309          3.36
     1.026832          1.77
     1.024839          3.85
     1.021882          8.80
     1.021855          1.14
     1.020893          3.42
     1.020196          6.23
     1.019918          1.06
     1.017302          0.41
     1.016652          0.31
     1.015353          1.21
     1.014260          1.00
     1.013774          1.55
     1.013765          6.23
     1.012810          5.80
     1.012331          6.81
     1.008777         38.26
     1.008500          5.82
     1.006912          0.81
     1.006677          0.36
##############################################################################
###                            Comments                                    ###
##############################################################################
###   Diffraction pattern calculated by Match!. 
###   I/Ic calculated by Match!. 
##############################################################################


