##############################################################################
###               Crystal structure data exported by Match!                ###
##############################################################################
###                           Data published by:                           ###
###                                                                        ###
###               COD (Crystallography Open Database)
##############################################################################
data_4124068
_citation_journal_full    'Journal of the American Chemical Society'
_citation_journal_volume  '126'
_citation_page_first  '9769'
_citation_page_last   '9775'
_citation_year  '2004'
_citation_title  'Chemical evaluation of hypothetical uninodal zeolites'
loop_
_publ_author_name
  'Foster M.D.'
  'Friedrichs O.D.'
  'Paz F.A.A.'
  'Bell R.G.'
  'Klinowski J.'
_chemical_formula_sum  'O2 Si'
_chemical_name_common  'Silica'
_symmetry_space_group_name_H-M 'C 1 2/c 1'
_space_group_IT_number 15
_space_group_crystal_system 'monoclinic'
loop_
_symmetry_equiv_pos_as_xyz
   'x, y, z'
   'x+0.5, y+0.5, z'
   '-x, y, -z+0.5'
   '-x+0.5, y+0.5, -z+0.5'
   '-x, -y, -z'
   '-x+0.5, -y+0.5, -z'
   'x, -y, z+0.5'
   'x+0.5, -y+0.5, z+0.5'
_cell_length_a        8.69296
_cell_length_b        6.02050
_cell_length_c       11.46583
_cell_angle_alpha    90.0000
_cell_angle_beta    112.1066
_cell_angle_gamma    90.0000
_cell_formula_units_Z 16
loop_
_atom_site_label
_atom_site_fract_x
_atom_site_fract_y
_atom_site_fract_z
_atom_site_occupancy
_atom_site_B_iso_or_equiv
o      0.264   0.375   0.750    1.00000    1.000
si      0.904   0.338   0.882    1.00000    1.000
o      0.750   0.750   0.000    1.00000    1.000
o      0.033   0.375   0.815    1.00000    1.000
si      0.228   0.413   0.882    1.00000    1.000
o      0.000   0.500   0.000    1.00000    1.000
o      0.848   0.125   0.944    1.00000    1.000
_cell_measurement_wavelength    1.541874
_cell_measurement_radiation   'x-rays'
_exptl_crystal_density_diffrn    2.871000
loop_
_pd_peak_d_spacing
_pd_peak_intensity
     5.311461         26.98
     4.822120        892.91
     4.818520        894.96
     4.060066        493.16
     4.053627        494.16
     4.026950        203.01
     4.018579        205.28
     3.226705        165.92
     3.221319        167.00
     3.010250          0.01
     2.896212       1000.00
     2.749268         64.55
     2.741287         65.14
     2.655731         43.83
     2.618895          0.00
     2.592312        243.11
     2.590634        242.24
     2.589320         72.69
     2.585423         73.51
     2.474694          5.51
     2.451908         56.11
     2.447655         54.46
     2.411060          0.09
     2.409260          0.04
     2.293493          2.31
     2.244624         27.58
     2.241721         27.20
     2.227224        146.18
     2.221916        143.57
     2.173230          0.67
     2.132103          0.05
     2.129304          0.09
     2.030033         74.80
     2.026813         75.02
     2.013475         41.61
     2.009290         41.05
     1.991490          0.00
     1.981974         46.58
     1.976739         47.50
     1.947292         27.93
     1.947054         28.02
     1.910994         18.17
     1.906523         17.28
     1.885196          6.44
     1.884551          6.18
     1.812022          5.07
     1.808970          5.18
     1.800321         25.46
     1.798261         26.31
     1.776791         27.87
     1.775890         27.47
     1.770487          2.86
     1.762026          0.00
     1.753393         51.42
     1.748733         53.90
     1.738951          0.10
     1.737601          0.04
     1.735798         56.04
     1.684328         26.41
     1.679434         26.30
     1.673606         18.25
     1.671200         17.92
     1.665565          3.40
     1.664823          3.56
     1.645059          9.40
     1.644630          9.26
     1.644294         53.45
     1.643294         53.55
     1.626762         10.32
     1.624691         10.96
     1.613352         41.53
     1.610659         41.58
     1.607373          1.16
     1.606173          1.17
     1.579025         99.73
     1.575997         99.56
     1.556049          1.96
     1.554755          6.64
     1.553030          2.08
     1.552663          1.36
     1.551101          1.48
     1.550783          7.30
     1.538820          4.95
     1.537066          4.66
     1.526098          0.00
     1.506373         24.17
     1.505385         24.29
     1.505125         52.37
     1.490241          0.00
     1.469880          0.32
     1.466624          0.30
     1.465131         29.19
     1.461605         28.67
     1.450526         25.64
     1.448470         26.28
     1.448106         12.37
     1.441073         11.90
     1.438770         11.20
     1.436101         13.82
     1.434960         14.48
     1.434067         18.57
     1.431420         18.24
     1.422263          0.00
     1.409865          5.18
     1.409505          5.38
     1.386967         23.33
     1.385183          0.00
     1.383634         22.14
     1.374634          1.52
     1.374587         11.06
     1.374195         34.79
     1.373670         10.80
     1.373528         34.34
     1.370643          1.71
     1.365358         10.36
     1.362336          7.21
     1.361691          9.97
     1.361119          6.95
     1.357885          2.05
     1.355101         55.01
     1.354677          2.29
     1.353355         29.59
     1.351209         30.17
     1.342317         15.43
     1.339526         14.11
     1.327865         26.68
     1.320226          3.72
     1.319339          3.73
     1.311722          0.56
     1.311359          0.74
     1.309448         16.90
     1.305484         68.27
     1.296156          1.20
     1.295317          1.22
     1.294660          0.03
     1.292711          0.02
     1.292515         16.65
     1.291475         16.83
     1.268539          4.02
     1.266968          3.13
     1.265198          0.80
     1.261632          0.68
     1.256184         15.36
     1.255502          0.15
     1.254594         15.36
     1.254400          4.62
     1.254292          0.70
     1.253576          4.81
     1.253408          0.09
     1.253279          0.67
     1.250427          5.63
     1.247421          5.66
     1.246396         33.71
     1.243604         32.58
     1.237347          9.47
     1.229277         10.00
     1.228799          9.51
     1.225954          2.81
     1.223828          2.88
     1.214915          0.00
     1.214455         21.22
     1.214052         21.76
     1.212209          2.41
     1.211237          2.29
     1.206868          1.04
     1.205530          0.00
     1.204896          0.83
     1.204630          0.00
     1.199275          2.79
     1.198649         19.57
     1.198112          3.18
     1.195342         19.65
     1.190865          0.85
     1.190810          0.85
     1.182416          4.57
     1.181354          4.32
     1.176227         30.77
     1.176071         30.70
     1.172826         37.32
     1.170891         33.45
     1.170345         36.95
     1.170186          0.22
     1.169823          1.32
     1.169243         33.22
     1.168701          5.62
     1.168388          0.14
     1.167471          5.59
     1.166492          1.42
     1.162045         14.06
     1.160083         13.29
     1.151247          4.17
     1.149248          1.10
     1.148510          4.18
     1.148454          5.52
     1.148211          5.68
     1.147444          0.33
     1.147058          1.01
     1.146747          8.16
     1.146716          0.31
     1.139928          4.85
     1.138217          4.82
     1.134594         14.94
     1.131601         15.08
     1.130105          5.40
     1.128450         10.35
     1.127839          5.07
     1.126102         10.33
     1.122312         17.72
     1.120861         17.65
     1.113612          2.21
     1.110958          2.10
     1.110466          0.03
     1.110334          0.03
     1.110230          1.40
     1.109922          1.44
     1.109331         14.63
     1.108279         14.88
     1.098871          4.19
     1.098654          0.05
     1.098271          0.04
     1.091109          0.96
     1.090316          1.04
     1.087581         11.30
     1.086615          2.92
     1.085314         11.44
     1.082462          1.35
     1.081808          0.00
     1.079903          1.24
     1.078769          0.00
     1.075999          0.89
     1.075568          6.99
     1.075399          0.91
     1.073773          6.80
     1.070018          7.89
     1.068654          0.00
     1.068446          7.74
     1.066051          0.89
     1.065187          0.02
     1.064725          0.52
     1.064652          0.85
     1.064376          0.51
     1.063946          0.02
     1.062292          1.55
     1.061685          0.38
     1.059232          0.36
     1.054841          1.33
     1.054577          1.51
     1.053369          3.16
     1.052730          3.01
     1.052073          0.00
     1.049487          5.30
     1.049389          0.00
     1.046379          5.10
     1.044848         17.83
     1.044445          1.87
     1.044079         18.43
     1.043808          0.00
     1.043677          1.91
     1.039022          2.72
     1.038589          2.86
     1.038251          5.64
     1.037245          5.53
     1.030540          0.00
     1.028898          0.20
     1.027841          0.00
     1.026908          0.21
     1.025443          1.39
     1.025198          0.08
     1.024633          0.52
     1.024232          1.34
     1.023804          0.55
     1.022954          0.06
     1.022066          0.00
     1.017639          0.20
     1.017097          0.16
     1.015016          0.54
     1.014998          6.13
     1.014628          6.15
     1.013407          0.49
     1.006737          4.35
##############################################################################
###                            Comments                                    ###
##############################################################################
###   Diffraction pattern calculated by Match!. 
###   I/Ic calculated by Match!. 
###   Space group has been derived from given symmetry operations. 
##############################################################################


