##############################################################################
###               Crystal structure data exported by Match!                ###
##############################################################################
###                           Data published by:                           ###
###                                                                        ###
###               COD (Crystallography Open Database)
##############################################################################
data_1101168
_citation_title  'St210499->St100gnn'
_chemical_formula_sum  'Al2 O3'
_chemical_name_common  'eta- Al-oxid_fit2gnn'
_symmetry_space_group_name_H-M 'F d -3 m'
_space_group_IT_number 227
_space_group_crystal_system 'cubic'
loop_
_symmetry_equiv_pos_as_xyz
   'x, y, z'
   'x+0.5, y+0.5, z'
   'x+0.5, y, z+0.5'
   'x, y+0.5, z+0.5'
   '-x+0.25, -y+0.25, -z+0.25'
   '-x+0.75, -y+0.75, -z+0.25'
   '-x+0.75, -y+0.25, -z+0.75'
   '-x+0.25, -y+0.75, -z+0.75'
   '-y+0.25, x+0.25, z+0.25'
   '-y+0.75, x+0.75, z+0.25'
   '-y+0.75, x+0.25, z+0.75'
   '-y+0.25, x+0.75, z+0.75'
   '-x, -y, z'
   '-x+0.5, -y+0.5, z'
   '-x+0.5, -y, z+0.5'
   '-x, -y+0.5, z+0.5'
   'y+0.25, -x+0.25, z+0.25'
   'y+0.75, -x+0.75, z+0.25'
   'y+0.75, -x+0.25, z+0.75'
   'y+0.25, -x+0.75, z+0.75'
   'x+0.25, -z+0.25, y+0.25'
   'x+0.75, -z+0.75, y+0.25'
   'x+0.75, -z+0.25, y+0.75'
   'x+0.25, -z+0.75, y+0.75'
   'x, -y, -z'
   'x+0.5, -y+0.5, -z'
   'x+0.5, -y, -z+0.5'
   'x, -y+0.5, -z+0.5'
   'x+0.25, z+0.25, -y+0.25'
   'x+0.75, z+0.75, -y+0.25'
   'x+0.75, z+0.25, -y+0.75'
   'x+0.25, z+0.75, -y+0.75'
   'z+0.25, y+0.25, -x+0.25'
   'z+0.75, y+0.75, -x+0.25'
   'z+0.75, y+0.25, -x+0.75'
   'z+0.25, y+0.75, -x+0.75'
   '-x, y, -z'
   '-x+0.5, y+0.5, -z'
   '-x+0.5, y, -z+0.5'
   '-x, y+0.5, -z+0.5'
   '-z+0.25, y+0.25, x+0.25'
   '-z+0.75, y+0.75, x+0.25'
   '-z+0.75, y+0.25, x+0.75'
   '-z+0.25, y+0.75, x+0.75'
   'y, -x, -z'
   'y+0.5, -x+0.5, -z'
   'y+0.5, -x, -z+0.5'
   'y, -x+0.5, -z+0.5'
   '-y, x, -z'
   '-y+0.5, x+0.5, -z'
   '-y+0.5, x, -z+0.5'
   '-y, x+0.5, -z+0.5'
   '-x, z, -y'
   '-x+0.5, z+0.5, -y'
   '-x+0.5, z, -y+0.5'
   '-x, z+0.5, -y+0.5'
   '-x, -z, y'
   '-x+0.5, -z+0.5, y'
   '-x+0.5, -z, y+0.5'
   '-x, -z+0.5, y+0.5'
   '-z, -y, x'
   '-z+0.5, -y+0.5, x'
   '-z+0.5, -y, x+0.5'
   '-z, -y+0.5, x+0.5'
   'z, -y, -x'
   'z+0.5, -y+0.5, -x'
   'z+0.5, -y, -x+0.5'
   'z, -y+0.5, -x+0.5'
   'z, x, y'
   'z+0.5, x+0.5, y'
   'z+0.5, x, y+0.5'
   'z, x+0.5, y+0.5'
   'y, z, x'
   'y+0.5, z+0.5, x'
   'y+0.5, z, x+0.5'
   'y, z+0.5, x+0.5'
   '-y, -z, x'
   '-y+0.5, -z+0.5, x'
   '-y+0.5, -z, x+0.5'
   '-y, -z+0.5, x+0.5'
   'z, -x, -y'
   'z+0.5, -x+0.5, -y'
   'z+0.5, -x, -y+0.5'
   'z, -x+0.5, -y+0.5'
   '-y, z, -x'
   '-y+0.5, z+0.5, -x'
   '-y+0.5, z, -x+0.5'
   '-y, z+0.5, -x+0.5'
   '-z, -x, y'
   '-z+0.5, -x+0.5, y'
   '-z+0.5, -x, y+0.5'
   '-z, -x+0.5, y+0.5'
   '-z, x, -y'
   '-z+0.5, x+0.5, -y'
   '-z+0.5, x, -y+0.5'
   '-z, x+0.5, -y+0.5'
   'y, -z, -x'
   'y+0.5, -z+0.5, -x'
   'y+0.5, -z, -x+0.5'
   'y, -z+0.5, -x+0.5'
   '-z+0.25, -x+0.25, -y+0.25'
   '-z+0.75, -x+0.75, -y+0.25'
   '-z+0.75, -x+0.25, -y+0.75'
   '-z+0.25, -x+0.75, -y+0.75'
   '-y+0.25, -z+0.25, -x+0.25'
   '-y+0.75, -z+0.75, -x+0.25'
   '-y+0.75, -z+0.25, -x+0.75'
   '-y+0.25, -z+0.75, -x+0.75'
   'y+0.25, z+0.25, -x+0.25'
   'y+0.75, z+0.75, -x+0.25'
   'y+0.75, z+0.25, -x+0.75'
   'y+0.25, z+0.75, -x+0.75'
   '-z+0.25, x+0.25, y+0.25'
   '-z+0.75, x+0.75, y+0.25'
   '-z+0.75, x+0.25, y+0.75'
   '-z+0.25, x+0.75, y+0.75'
   'y+0.25, -z+0.25, x+0.25'
   'y+0.75, -z+0.75, x+0.25'
   'y+0.75, -z+0.25, x+0.75'
   'y+0.25, -z+0.75, x+0.75'
   'z+0.25, x+0.25, -y+0.25'
   'z+0.75, x+0.75, -y+0.25'
   'z+0.75, x+0.25, -y+0.75'
   'z+0.25, x+0.75, -y+0.75'
   'z+0.25, -x+0.25, y+0.25'
   'z+0.75, -x+0.75, y+0.25'
   'z+0.75, -x+0.25, y+0.75'
   'z+0.25, -x+0.75, y+0.75'
   '-y+0.25, z+0.25, x+0.25'
   '-y+0.75, z+0.75, x+0.25'
   '-y+0.75, z+0.25, x+0.75'
   '-y+0.25, z+0.75, x+0.75'
   'y+0.25, x+0.25, -z+0.25'
   'y+0.75, x+0.75, -z+0.25'
   'y+0.75, x+0.25, -z+0.75'
   'y+0.25, x+0.75, -z+0.75'
   '-y+0.25, -x+0.25, -z+0.25'
   '-y+0.75, -x+0.75, -z+0.25'
   '-y+0.75, -x+0.25, -z+0.75'
   '-y+0.25, -x+0.75, -z+0.75'
   '-x+0.25, z+0.25, y+0.25'
   '-x+0.75, z+0.75, y+0.25'
   '-x+0.75, z+0.25, y+0.75'
   '-x+0.25, z+0.75, y+0.75'
   '-x+0.25, -z+0.25, -y+0.25'
   '-x+0.75, -z+0.75, -y+0.25'
   '-x+0.75, -z+0.25, -y+0.75'
   '-x+0.25, -z+0.75, -y+0.75'
   'z+0.25, -y+0.25, x+0.25'
   'z+0.75, -y+0.75, x+0.25'
   'z+0.75, -y+0.25, x+0.75'
   'z+0.25, -y+0.75, x+0.75'
   '-z+0.25, -y+0.25, -x+0.25'
   '-z+0.75, -y+0.75, -x+0.25'
   '-z+0.75, -y+0.25, -x+0.75'
   '-z+0.25, -y+0.75, -x+0.75'
   'x+0.25, y+0.25, -z+0.25'
   'x+0.75, y+0.75, -z+0.25'
   'x+0.75, y+0.25, -z+0.75'
   'x+0.25, y+0.75, -z+0.75'
   '-x+0.25, y+0.25, z+0.25'
   '-x+0.75, y+0.75, z+0.25'
   '-x+0.75, y+0.25, z+0.75'
   '-x+0.25, y+0.75, z+0.75'
   'x+0.25, -y+0.25, z+0.25'
   'x+0.75, -y+0.75, z+0.25'
   'x+0.75, -y+0.25, z+0.75'
   'x+0.25, -y+0.75, z+0.75'
   '-y, -x, z'
   '-y+0.5, -x+0.5, z'
   '-y+0.5, -x, z+0.5'
   '-y, -x+0.5, z+0.5'
   'y, x, z'
   'y+0.5, x+0.5, z'
   'y+0.5, x, z+0.5'
   'y, x+0.5, z+0.5'
   'x, -z, -y'
   'x+0.5, -z+0.5, -y'
   'x+0.5, -z, -y+0.5'
   'x, -z+0.5, -y+0.5'
   'x, z, y'
   'x+0.5, z+0.5, y'
   'x+0.5, z, y+0.5'
   'x, z+0.5, y+0.5'
   '-z, y, -x'
   '-z+0.5, y+0.5, -x'
   '-z+0.5, y, -x+0.5'
   '-z, y+0.5, -x+0.5'
   'z, y, x'
   'z+0.5, y+0.5, x'
   'z+0.5, y, x+0.5'
   'z, y+0.5, x+0.5'
_cell_length_a        7.93200
_cell_length_b        7.93200
_cell_length_c        7.93200
_cell_angle_alpha    90.0000
_cell_angle_beta     90.0000
_cell_angle_gamma    90.0000
_cell_formula_units_Z 1
loop_
_atom_site_label
_atom_site_fract_x
_atom_site_fract_y
_atom_site_fract_z
_atom_site_occupancy
_atom_site_B_iso_or_equiv
o      0.376   0.376   0.376    1.00000    1.000
al      0.250   0.250   0.250    0.51000    2.000
al      0.240   0.000   0.000    0.04000    1.000
al      0.625   0.625   0.625    0.40000    1.000
al      0.125   0.125   0.125    0.31000    1.000
_cell_measurement_wavelength    1.541874
_cell_measurement_radiation   'x-rays'
_exptl_crystal_density_diffrn    3.262000
loop_
_pd_peak_d_spacing
_pd_peak_intensity
     4.579542        114.64
     2.804386        117.30
     2.391588        149.85
     2.289771        227.89
     1.983000        994.02
     1.819726         22.85
     1.619113         32.00
     1.526514         46.92
     1.402193       1000.00
     1.340753          9.86
     1.322000          0.00
     1.254159         10.41
     1.209619         10.28
     1.195794          6.79
     1.144886        114.52
     1.110702          4.02
     1.059958          9.50
     1.032658         14.54
     0.991500        120.65
     0.969048          1.46
     0.961896          0.00
     0.934795          4.37
     0.915908         10.10
     0.909863          1.33
     0.886825        185.49
     0.870650          2.67
     0.865452          0.00
     0.845554          2.66
     0.831500         10.98
     0.809556        524.63
     0.797196          3.40
##############################################################################
###                            Comments                                    ###
##############################################################################
###   Diffraction pattern calculated by Match!. 
###   I/Ic calculated by Match!. 
###   Warning: Ambiguous space group information. Crystal system has been deduced from unit cell parameters only! 
##############################################################################


