##############################################################################
###               Crystal structure data exported by Match!                ###
##############################################################################
###                           Data published by:                           ###
###                                                                        ###
###               COD (Crystallography Open Database)
##############################################################################
data_9008955
_citation_journal_full    'Crystal Structures'
_citation_journal_volume  '1'
_citation_page_first  '85'
_citation_page_last   '237'
_citation_year  '1963'
_citation_title  'Second edition. Interscience Publishers, New York, New YorkSample known as red plumbous oxide'
loop_
_publ_author_name
  'Wyckoff R. W. G.'
_chemical_formula_sum  'O Pb'
_chemical_name_common  'Lead(II) oxide'
_symmetry_space_group_name_H-M 'P 4/n m m'
_space_group_IT_number 129
_space_group_crystal_system 'tetragonal'
loop_
_symmetry_equiv_pos_as_xyz
   'x, y, z'
   '-x+0.5, -y+0.5, -z'
   '-y+0.5, x+0.5, z'
   '-x, -y, z'
   'y+0.5, -x+0.5, z'
   'y, -x, -z'
   '-y, x, -z'
   'x+0.5, -y+0.5, -z'
   '-x+0.5, y+0.5, -z'
   'y, x, -z'
   '-y, -x, -z'
   'x+0.5, y+0.5, -z'
   '-x, y, z'
   'x, -y, z'
   '-y+0.5, -x+0.5, z'
   'y+0.5, x+0.5, z'
_cell_length_a        3.97500
_cell_length_b        3.97500
_cell_length_c        5.02300
_cell_angle_alpha    90.0000
_cell_angle_beta     90.0000
_cell_angle_gamma    90.0000
loop_
_atom_site_label
_atom_site_fract_x
_atom_site_fract_y
_atom_site_fract_z
_atom_site_occupancy
_atom_site_B_iso_or_equiv
pb      0.000   0.500   0.238    1.00000    1.000
o      0.000   0.000   0.000    1.00000    1.000
_cell_measurement_wavelength    1.541874
_cell_measurement_radiation   'x-rays'
_exptl_crystal_density_diffrn    9.340000
loop_
_pd_peak_d_spacing
_pd_peak_intensity
     5.023000         22.24
     3.117048       1000.00
     2.810749        318.80
     2.511500        114.16
     2.452839          0.03
     2.123210          6.93
     1.987500        155.84
     1.872793        250.36
     1.848088          4.33
     1.675821        302.46
     1.674333          0.84
     1.558524        100.49
     1.543035        107.75
     1.450981          3.73
     1.438457          6.61
     1.405375         44.81
     1.353400          1.17
     1.281175         56.19
     1.280510          1.43
     1.257005         47.02
     1.255750         13.47
     1.226420         42.13
     1.219403          0.03
     1.218829         89.81
     1.197419          3.59
     1.171909          0.85
     1.146528         31.35
     1.124075         77.52
     1.076834         62.71
     1.076439          0.86
     1.061605         30.82
     1.039016         27.44
     1.025657          4.54
     1.009488          1.12
##############################################################################
###                            Comments                                    ###
##############################################################################
###   Diffraction pattern calculated by Match!. 
###   I/Ic calculated by Match!. 
###   Space group has been derived from given symmetry operations. 
##############################################################################


