##############################################################################
###               Crystal structure data exported by Match!                ###
##############################################################################
###                           Data published by:                           ###
###                                                                        ###
###               COD (Crystallography Open Database)
##############################################################################
data_9006301
_citation_journal_full    'Physics and Chemistry of Minerals'
_citation_journal_volume  '21'
_citation_page_first  '269'
_citation_page_last   '284'
_citation_year  '1994'
_citation_title  'Framework silica structures generated using simulated annealingwith a potential energy function based on an H6Si2O7 moleculeSample: 18'
loop_
_publ_author_name
  'Boisen M. B.'
  'Gibbs G. V.'
  'Bukowinski M. S. T.'
_chemical_formula_sum  'O2 Si'
_chemical_name_common  'Silica'
_symmetry_space_group_name_H-M 'I 21 21 21'
_space_group_IT_number 24
_space_group_crystal_system 'orthorhombic'
loop_
_symmetry_equiv_pos_as_xyz
   'x, y, z'
   'x+0.5, y+0.5, z+0.5'
   '-x, -y+0.5, z'
   '-x+0.5, -y, z+0.5'
   'x, -y, -z+0.5'
   'x+0.5, -y+0.5, -z'
   '-x+0.5, y, -z'
   '-x, y+0.5, -z+0.5'
_cell_length_a        4.11540
_cell_length_b        4.42010
_cell_length_c       15.57240
_cell_angle_alpha    90.0000
_cell_angle_beta     90.0000
_cell_angle_gamma    90.0000
loop_
_atom_site_label
_atom_site_fract_x
_atom_site_fract_y
_atom_site_fract_z
_atom_site_occupancy
_atom_site_B_iso_or_equiv
si      0.000   0.750   0.811    1.00000    1.000
si      0.000   0.750   0.062    1.00000    1.000
o      0.238   0.569   0.127    1.00000    1.000
o      0.322   0.000   0.250    1.00000    1.000
o      0.250   0.053   0.500    1.00000    1.000
_cell_measurement_wavelength    1.541874
_cell_measurement_radiation   'x-rays'
_exptl_crystal_density_diffrn    2.818000
loop_
_pd_peak_d_spacing
_pd_peak_intensity
     7.786200          0.77
     4.252129       1000.00
     3.978802        136.13
     3.893100          0.28
     3.365313         72.79
     3.224842        359.12
     3.011991          0.05
     2.809132          0.83
     2.595400          0.22
     2.545946         12.56
     2.483470         54.72
     2.382251        867.72
     2.210050          1.49
     2.126064          0.64
     2.057700          0.01
     1.989401          0.96
     1.987140         18.59
     1.966151          0.25
     1.957003          2.49
     1.946550          0.27
     1.932013          9.19
     1.921953          1.20
     1.852220         41.75
     1.823027         81.10
     1.819218          1.15
     1.755538          8.61
     1.682656          0.03
     1.650980         87.63
     1.634856          0.29
     1.612421          1.02
     1.611216          9.57
     1.600352         14.34
     1.595026          2.58
     1.557240          0.07
     1.505995        109.71
     1.478592          0.28
     1.466816          0.80
     1.465144          9.47
     1.460742        107.25
     1.429414         57.11
     1.417376          0.55
     1.414081        106.40
     1.404566          0.18
     1.387148          1.27
     1.383297          0.24
     1.366508          0.47
     1.365646          0.38
     1.348211          0.64
     1.338682          8.41
     1.331854          3.78
     1.326267          3.76
     1.310153          0.43
     1.306680         56.78
     1.302588          0.24
     1.297700          0.05
     1.293366          6.89
     1.291990          1.36
     1.272973          0.17
     1.268589         29.98
     1.255417         17.30
     1.241735          0.01
     1.241724         54.35
     1.228386         25.20
     1.223380          0.28
     1.194412         41.95
     1.191791         52.42
     1.191126          7.11
     1.169583          0.50
     1.167649          2.34
     1.167260          5.06
     1.162275          5.95
     1.156172          1.84
     1.150146          8.00
     1.145009         21.76
     1.137211         26.22
     1.129659          0.99
     1.127710          2.90
     1.121771         14.58
     1.119047          0.41
     1.118085          1.72
     1.112314          0.05
     1.105025          9.00
     1.097648          0.00
     1.094062          0.28
     1.091593          6.63
     1.086893          0.39
     1.082563          0.05
     1.074947          2.15
     1.064725          3.18
     1.063032          1.23
     1.054740          1.76
     1.045357         16.77
     1.043436          0.06
     1.035798          0.09
     1.032413          0.40
     1.028850         11.96
     1.020819          1.37
     1.020255          7.29
     1.019984          0.52
     1.016709          0.25
     1.010658          7.86
     1.009594         10.03
     1.007960          1.88
     1.006625          0.80
##############################################################################
###                            Comments                                    ###
##############################################################################
###   Diffraction pattern calculated by Match!. 
###   I/Ic calculated by Match!. 
###   Space group has been derived from given symmetry operations. 
##############################################################################


