##############################################################################
###               Crystal structure data exported by Match!                ###
##############################################################################
###                           Data published by:                           ###
###                                                                        ###
###               COD (Crystallography Open Database)
##############################################################################
data_9014514
_citation_journal_full    'Zeitschrift fur Kristallographie'
_citation_journal_volume  '84'
_citation_page_first  '299'
_citation_page_last   '309'
_citation_year  '1933'
_citation_title  'The crystal structure of Cerussite_cod_database_code 1010956'
loop_
_publ_author_name
  'Colby M.'
  'LaCoste L.'
_chemical_formula_sum  'C O2 Pb'
_chemical_name_mineral  'Cerussite'
_symmetry_space_group_name_H-M 'P m c n'
_space_group_IT_number 62
_space_group_crystal_system 'orthorhombic'
loop_
_symmetry_equiv_pos_as_xyz
   'x, y, z'
   '-x+0.5, -y+0.5, z+0.5'
   'x+0.5, -y, -z'
   '-x, y+0.5, -z+0.5'
   '-x, -y, -z'
   'x+0.5, y+0.5, -z+0.5'
   '-x+0.5, y, z'
   'x, -y+0.5, z+0.5'
_cell_length_a        5.16600
_cell_length_b        8.46800
_cell_length_c        6.14600
_cell_angle_alpha    90.0000
_cell_angle_beta     90.0000
_cell_angle_gamma    90.0000
loop_
_atom_site_label
_atom_site_fract_x
_atom_site_fract_y
_atom_site_fract_z
_atom_site_occupancy
_atom_site_B_iso_or_equiv
pb      0.000   0.417   0.000    1.00000    1.000
c      0.000   0.764   0.153    1.00000    1.000
o      0.000   0.909   0.153    1.00000    1.000
o      0.199   0.691   0.153    1.00000    1.000
_cell_measurement_wavelength    1.541874
_cell_measurement_radiation   'x-rays'
_exptl_crystal_density_diffrn    12.412000
loop_
_pd_peak_d_spacing
_pd_peak_intensity
     4.973995       1000.00
     4.410112          7.12
     4.234000         82.61
     3.583102          0.82
     3.486708          0.40
     3.073000        184.12
     2.890042          0.71
     2.888672         10.47
     2.641056          1.55
     2.583000        153.48
     2.565077          0.12
     2.521275          0.31
     2.486997         67.72
     2.477029          0.27
     2.297454          1.14
     2.292337        251.08
     2.240846          0.92
     2.205056         48.00
     2.117000         17.95
     2.078802          0.00
     2.075516          2.55
     2.001586          1.07
     1.991222         99.96
     1.977283        114.54
     1.928518          0.02
     1.925489          0.16
     1.866391          0.29
     1.857980          0.01
     1.844134          0.00
     1.820087          0.40
     1.791551         41.95
     1.743354         19.01
     1.736790          0.27
     1.687463          0.09
     1.657998          0.13
     1.651831          0.00
     1.637337         15.87
     1.632744         39.64
     1.627242          0.02
     1.619472          0.26
     1.609325          0.02
     1.582155          0.02
     1.578684          0.02
     1.577021         97.01
     1.556837          0.24
     1.543967          0.02
     1.536500         19.08
     1.511815          0.33
     1.502222          0.05
     1.500871          0.06
     1.483256          0.05
     1.479128          0.01
     1.472740          0.06
     1.472191          0.02
     1.470037          0.01
     1.450959          0.13
     1.445021         19.06
     1.444336         11.86
     1.429709          0.05
     1.425656          0.00
     1.415823          0.22
     1.415753          0.04
     1.411333         20.17
     1.395287          0.19
     1.390993          0.05
     1.380135         49.88
     1.375532          0.04
     1.349516          0.00
     1.329219          0.04
     1.326114          0.00
     1.320528         26.34
     1.305700          0.02
     1.305390          0.02
     1.305318         24.54
     1.304759          0.01
     1.302502          0.00
     1.291500         16.02
     1.286267          0.17
     1.282539         24.55
     1.279032          0.00
     1.265544          0.01
     1.260638         11.37
     1.258602          0.02
     1.250049         32.82
     1.244752          0.04
     1.243499          5.55
     1.238514         27.53
     1.235309          5.10
     1.225118          0.00
     1.216451         15.67
     1.214108          0.04
     1.211088          0.06
     1.208968          0.00
     1.207472          0.00
     1.196107          0.02
     1.194367          0.00
     1.190624         18.08
     1.186941         14.14
     1.184822          0.02
     1.184067          0.01
     1.180459          0.01
     1.179027          0.20
     1.177852          0.03
     1.165008         26.43
     1.162236          0.00
     1.156800          0.02
     1.153536          0.00
     1.150797          0.00
     1.148727         31.97
     1.146464          0.01
     1.146168          8.95
     1.137966          0.01
     1.136099          0.01
     1.133894          0.05
     1.126977          0.00
     1.125636          0.01
     1.123829          0.00
     1.120423          7.61
     1.118993          0.03
     1.111323          0.00
     1.106613          0.01
     1.102528          3.66
     1.101081          0.06
     1.100516         22.32
     1.099830          0.01
     1.097024          0.00
     1.085205          0.03
     1.083544         23.59
     1.078521         19.62
     1.074739          0.00
     1.073651          0.17
     1.063004          0.08
     1.062193          0.00
     1.059885          0.00
     1.058500          1.99
     1.057875          0.00
     1.043142          0.03
     1.041667         10.48
     1.041383          0.03
     1.041190          0.00
     1.040234          0.00
     1.039401         12.00
     1.037758          6.26
     1.032941          0.00
     1.031908          0.22
     1.028595          0.01
     1.025594          0.00
     1.024333          7.76
     1.022505          0.00
     1.021115          0.00
     1.018981          0.01
     1.018869          0.00
     1.016920          0.03
     1.012924         17.04
     1.011606          0.00
     1.008125          0.00
##############################################################################
###                            Comments                                    ###
##############################################################################
###   Diffraction pattern calculated by Match!. 
###   I/Ic calculated by Match!. 
###   Space group has been derived from given symmetry operations. 
##############################################################################


