##############################################################################
###               Crystal structure data exported by Match!                ###
##############################################################################
###                           Data published by:                           ###
###                                                                        ###
###               COD (Crystallography Open Database)
##############################################################################
data_1546345
_citation_journal_full    'Zeolites'
_citation_journal_volume  '11'
_citation_page_first  '438'
_citation_page_last   '442'
_citation_year  '1991'
_citation_title  'The synthesis and structure of SSZ-24, the silica analog of AlPO4-5'
loop_
_publ_author_name
  'Bialek R.'
  'Meier W. M.'
  'Davis M.'
  'Annen M. J.'
_chemical_formula_sum  'O2 Si'
_chemical_name_common  'Silica'
_symmetry_space_group_name_H-M 'P 6/m c c'
_space_group_IT_number 192
_space_group_crystal_system 'hexagonal'
loop_
_symmetry_equiv_pos_as_xyz
   'x, y, z'
   'x-y, x, z'
   '-y, x-y, z'
   '-x, -y, z'
   '-x+y, -x, z'
   'y, -x+y, z'
   'x-y, -y, -z+0.5'
   '-x, -x+y, -z+0.5'
   'y, x, -z+0.5'
   '-y, -x, -z+0.5'
   '-x+y, y, -z+0.5'
   'x, x-y, -z+0.5'
   '-x, -y, -z'
   '-x+y, -x, -z'
   'y, -x+y, -z'
   'x, y, -z'
   'x-y, x, -z'
   '-y, x-y, -z'
   '-x+y, y, z+0.5'
   'x, x-y, z+0.5'
   '-y, -x, z+0.5'
   'y, x, z+0.5'
   'x-y, -y, z+0.5'
   '-x, -x+y, z+0.5'
_cell_length_a       13.67100
_cell_length_b       13.67100
_cell_length_c        8.32800
_cell_angle_alpha    90.0000
_cell_angle_beta     90.0000
_cell_angle_gamma   120.0000
_cell_formula_units_Z 12
loop_
_atom_site_label
_atom_site_fract_x
_atom_site_fract_y
_atom_site_fract_z
_atom_site_occupancy
_atom_site_B_iso_or_equiv
si      0.457   0.336   0.190    1.00000    2.052
o      0.211   0.421   0.250    1.00000    2.526
o      0.358   0.000   0.250    1.00000    4.895
o      0.580   0.420   0.250    1.00000    1.816
o      0.439   0.328   0.000    0.50000    6.000
o      0.486   0.345   0.000    0.50000    6.000
o      0.000   0.000   0.125    1.00000    17.359
o      0.000   0.000   0.125    0.60000    17.359
_cell_measurement_wavelength    1.541874
_cell_measurement_radiation   'x-rays'
_cell_measurement_temperature    293.000000
_exptl_crystal_density_diffrn    1.902000
loop_
_pd_peak_d_spacing
_pd_peak_intensity
    11.839433       1000.00
     6.835500         25.23
     5.919716        168.89
     4.474885        427.66
     4.164000        381.91
     3.946478          0.08
     3.941867        355.97
     3.928132         95.52
     3.556129         19.68
     3.417750        107.11
     3.405813          3.37
     3.283668         22.34
     3.054784         42.78
     3.048378         52.12
     2.959858         58.96
     2.864394          0.88
     2.716152          7.46
     2.641818         33.57
     2.583576        105.69
     2.582281          5.13
     2.578408          2.05
     2.467563          0.28
     2.412483         26.02
     2.367887          0.46
     2.358959         79.32
     2.278500          0.31
     2.274953          0.28
     2.237443          0.61
     2.195340          5.44
     2.160816         12.52
     2.126425          7.89
     2.119952         13.93
     2.082000         23.52
     2.060323          0.45
     2.058355         10.92
     2.050536         11.82
     1.998825          8.77
     1.991663          2.45
     1.973239          7.58
     1.970934          0.38
     1.964066          0.06
     1.946391          2.76
     1.941423          5.15
     1.895827         12.19
     1.895315         15.76
     1.893782          5.90
     1.891235          0.14
     1.887687          2.37
     1.848534          0.09
     1.841455          0.89
     1.805497          1.00
     1.783155          0.63
     1.778065          4.91
     1.764505         11.57
     1.763268          0.01
     1.758346          0.30
     1.742043         12.23
     1.725413          7.27
     1.708875          5.52
     1.702907          3.85
     1.691348          1.88
     1.688085          0.42
     1.657510          0.35
     1.656484          0.04
     1.652401          0.90
     1.641834         21.45
     1.621125          0.48
     1.610829         11.65
     1.593684         13.55
     1.580922          3.15
     1.568171          9.00
     1.567013          1.95
     1.565570          0.01
     1.563555          5.13
     1.560977         44.17
     1.541088          0.00
     1.536979          4.51
     1.527392         15.36
     1.524189          0.33
     1.515884          6.90
     1.513534         14.13
     1.491628          0.26
     1.491379          0.01
     1.487654          1.20
     1.485433          9.09
     1.479929          0.05
     1.468263          0.06
     1.467550          5.90
     1.446417          0.52
     1.444375          0.89
     1.432197          0.00
     1.425083          1.72
     1.424431          4.95
     1.421832          0.53
     1.419892          2.28
     1.413170         19.70
     1.404249          0.37
     1.401759          0.47
     1.399900          0.10
     1.394475          0.30
     1.388000          0.16
     1.385701          0.04
     1.378559          0.11
     1.367100         16.73
     1.366908          0.39
     1.366333          0.02
     1.365375          0.02
     1.364038          0.33
     1.360240          0.12
     1.358076          1.27
     1.351351          0.33
     1.340371          0.27
     1.336049          7.08
     1.332040          0.09
     1.330445          0.13
     1.325693          0.24
     1.320909          0.31
     1.315493         12.83
     1.315322          0.83
     1.314809          0.01
     1.313956          0.13
     1.312764          0.63
     1.311237          0.27
     1.309377          0.04
     1.298887         10.88
     1.291788          2.09
     1.291141          0.66
     1.289204          2.99
     1.285996          1.03
     1.282737          3.19
     1.278476          0.25
     1.276523          0.02
     1.268706          0.06
     1.265496         10.16
     1.256685          0.52
     1.254384          8.99
     1.252608          0.34
     1.251281          0.01
     1.241110          3.05
     1.239819          0.43
     1.235970          0.79
     1.233781          1.76
     1.227692          2.78
     1.227553          0.18
     1.225473          0.20
     1.224231          9.69
     1.222717          9.30
     1.219915          0.66
     1.214566          0.03
     1.212551          0.02
     1.206241          0.14
     1.202112          7.57
     1.200939          2.66
     1.197441          7.52
     1.189781          2.67
     1.189402          2.82
     1.187887          0.05
     1.186755          0.47
     1.185376          6.81
     1.183943          0.95
     1.179479          0.12
     1.177576          2.83
     1.171191          0.08
     1.169264         13.01
     1.166574          0.09
     1.162303          0.11
     1.155294          0.42
     1.154947          9.07
     1.153560          0.06
     1.149773          1.40
     1.142763          0.71
     1.141755          0.01
     1.139250          0.63
     1.138806          0.56
     1.137476          0.06
     1.135271          0.77
     1.134012          1.23
     1.133027          0.29
     1.130088          1.30
     1.123749          0.56
     1.123643          0.12
     1.123323          0.01
     1.122791          0.01
     1.122047          0.16
     1.121093          0.04
     1.119930          0.92
     1.118721          0.01
     1.118560          0.32
     1.113656          0.02
     1.112103          0.43
     1.111174          0.09
     1.108762          0.72
     1.103124          8.15
     1.100411          0.57
     1.098865          0.51
     1.097670          0.52
     1.094556          1.16
     1.094162          1.21
     1.092101          2.44
     1.089759          0.13
     1.085223          0.00
     1.084935          0.40
     1.080642          0.00
     1.080408          0.04
     1.077388          0.04
     1.076312          0.01
     1.075470          1.49
     1.072955          0.11
     1.066066          0.21
     1.065248          0.47
     1.063212          0.08
     1.059976          0.02
     1.058594          1.10
     1.057526          0.33
     1.054652          0.44
     1.052543          0.49
     1.050580          0.21
     1.050447          0.41
     1.049796          0.56
     1.042404          0.06
     1.042319          0.93
     1.042064          0.01
     1.041639          0.02
     1.041045          3.06
     1.041000          0.27
     1.040283          1.79
     1.039353          0.81
     1.038258          0.02
     1.037631          2.28
     1.036999          0.12
     1.034333          0.00
     1.030162          0.05
     1.029177          0.01
     1.029134          0.11
     1.026609          0.45
     1.025268          0.15
     1.023695          0.76
     1.020767          0.05
     1.018897          0.87
     1.018658          0.21
     1.018261          0.01
     1.017707          0.05
     1.016126          0.01
     1.015103          0.58
     1.013926          0.22
     1.012404          0.10
     1.011200          0.00
     1.007722          0.00
     1.006570          0.01
##############################################################################
###                            Comments                                    ###
##############################################################################
###   Diffraction pattern calculated by Match!. 
###   I/Ic calculated by Match!. 
###   Space group has been derived from given symmetry operations. 
##############################################################################


