##############################################################################
###               Crystal structure data exported by Match!                ###
##############################################################################
###                           Data published by:                           ###
###                                                                        ###
###               COD (Crystallography Open Database)
##############################################################################
data_4117378
_citation_journal_full    'Journal of the American Chemical Society'
_citation_journal_volume  '134'
_citation_page_first  '2255'
_citation_page_last   '2263'
_citation_year  '2012'
_citation_title  'Zeolite Synthesis in Fluoride Media: Structure Direction toward ITW bySmall Methylimidazolium Cations'
loop_
_publ_author_name
  'Alex Rojas'
  'Evangelina Mart?nez-Morales'
  'Claudio M. Zicovich-Wilson'
  'Miguel A. Camblor'
_chemical_formula_sum  'O2 Si'
_chemical_name_common  'Silica'
_symmetry_space_group_name_H-M 'I 1 2/m 1'
_space_group_IT_number 12
_space_group_crystal_system 'monoclinic'
loop_
_symmetry_equiv_pos_as_xyz
   'x, y, z'
   'x+0.5, y+0.5, z+0.5'
   '-x, y, -z'
   '-x+0.5, y+0.5, -z+0.5'
   '-x, -y, -z'
   '-x+0.5, -y+0.5, -z+0.5'
   'x, -y, z'
   'x+0.5, -y+0.5, z+0.5'
_cell_length_a       10.32658
_cell_length_b       14.99940
_cell_length_c       17.71021
_cell_angle_alpha    90.0000
_cell_angle_beta    105.3959
_cell_angle_gamma    90.0000
_cell_formula_units_Z 48
loop_
_atom_site_label
_atom_site_fract_x
_atom_site_fract_y
_atom_site_fract_z
_atom_site_occupancy
_atom_site_B_iso_or_equiv
si      0.648   0.255   0.053    1.00000    0.939
si      0.648   0.235   0.553    1.00000    0.939
si      0.696   0.399   0.347    1.00000    0.939
si      0.704   0.400   0.826    1.00000    0.939
si      0.598   0.398   0.166    1.00000    0.939
si      0.611   0.398   0.645    1.00000    0.939
o      0.000   0.741   0.500    1.00000    0.813
o      0.000   0.715   0.000    1.00000    0.813
o      0.812   0.332   0.400    1.00000    0.813
o      0.820   0.342   0.882    1.00000    0.813
o      0.117   0.000   0.647    1.00000    0.813
o      0.124   0.000   0.121    1.00000    0.813
o      0.663   0.331   0.111    1.00000    0.813
o      0.659   0.337   0.588    1.00000    0.813
o      0.429   0.372   0.155    1.00000    0.813
o      0.460   0.380   0.636    1.00000    0.813
o      0.695   0.381   0.258    1.00000    0.813
o      0.686   0.377   0.730    1.00000    0.813
o      0.247   0.277   -0.001    1.00000    0.813
o      0.240   0.000   0.869    1.00000    0.813
o      0.243   0.000   0.344    1.00000    0.813
_cell_measurement_wavelength    1.541874
_cell_measurement_radiation   'x-rays'
_exptl_crystal_density_diffrn    1.810000
loop_
_pd_peak_d_spacing
_pd_peak_intensity
    11.268859          4.14
     9.808106         14.72
     8.537335          0.07
     8.295007       1000.00
     7.751695          0.91
     7.499700        119.91
     6.741004        293.72
     5.957626          2.19
     5.634430        523.06
     5.626483          0.13
     5.389975          0.09
     5.383793          4.82
     5.321341          0.14
     4.978002        172.50
     4.904053        233.68
     4.880535          0.19
     4.798318          8.28
     4.500694          0.12
     4.468037         27.08
     4.457493          1.00
     4.284472          0.01
     4.268667        130.92
     4.191493         28.08
     4.191171          0.62
     4.167937         30.33
     4.147504          1.27
     4.104442          2.73
     3.875847         68.06
     3.831776          0.03
     3.778060          3.99
     3.773000         59.30
     3.756286          2.26
     3.749850         55.12
     3.709832         73.42
     3.591166          0.41
     3.530649          5.38
     3.502591          4.82
     3.494125         89.38
     3.443215         52.54
     3.433268        228.99
     3.432865          0.60
     3.375628          0.24
     3.370502         50.41
     3.332696          0.46
     3.329727         20.50
     3.329244        158.22
     3.288369          4.02
     3.288214          0.02
     3.269369          3.38
     3.254551          0.01
     3.240304         65.61
     3.194371          1.25
     3.173168          0.96
     3.121405          1.06
     3.120355          0.16
     3.106885          0.26
     2.996978          0.95
     2.995353          2.98
     2.995152          1.64
     2.979563          9.91
     2.978813          1.99
     2.954625         13.14
     2.917725          4.57
     2.895536         24.94
     2.884083         14.00
     2.872323         63.98
     2.870333          0.03
     2.869516          0.10
     2.845778         20.19
     2.819941          0.79
     2.819647          0.56
     2.817215         64.26
     2.813241          3.39
     2.798336          8.99
     2.787672         10.07
     2.781694          0.82
     2.776755          0.14
     2.773839          1.28
     2.765002          2.83
     2.722935          0.41
     2.694987         16.49
     2.691896         33.61
     2.661462          0.68
     2.660670         16.36
     2.659691         20.58
     2.653817          1.21
     2.634021         39.12
     2.604001          2.03
     2.597630          4.16
     2.593622          0.02
     2.583898          0.60
     2.580703          3.33
     2.570547          1.66
     2.541385          1.86
     2.532063          0.02
     2.529459          1.92
     2.525748          7.96
     2.525396          0.09
     2.505876          0.01
     2.499900         10.51
     2.491054          1.29
     2.489001          8.82
     2.486178          0.06
     2.480694         15.94
     2.474905          3.38
     2.472379          0.12
     2.472313          0.26
     2.464274          1.27
     2.452027          3.21
     2.442969          0.03
     2.440268         28.56
     2.431506          0.00
     2.422452          0.10
     2.407610          0.05
     2.399159          0.24
     2.396807          0.14
     2.392410          0.32
     2.379234          0.02
     2.362302          1.43
     2.345416          0.01
     2.340355          0.70
     2.330621          0.02
     2.308763         12.47
     2.302763          8.24
     2.299349          0.33
     2.286116          0.61
     2.284552          0.64
     2.280320          0.00
     2.280061          0.13
     2.274637          3.11
     2.266897          4.49
     2.265664          0.55
     2.253772          0.03
     2.253622         19.97
     2.251074          0.23
     2.250347          2.16
     2.247001          1.19
     2.235938          0.29
     2.235370          0.66
     2.234019          0.29
     2.231541          0.10
     2.230026          0.76
     2.228746          0.70
     2.227214          0.20
     2.225427         12.04
     2.210251          2.62
     2.203317          0.55
     2.192257          2.53
     2.187046          0.45
     2.182701          0.20
     2.182519          3.56
     2.180405          0.33
     2.176722          2.34
     2.157193         10.34
     2.144993          0.09
     2.142736          0.06
     2.142236         10.40
     2.136404          0.75
     2.135330          4.33
     2.134334          3.85
     2.127683          0.14
     2.126095          5.17
     2.125897          2.23
     2.116849          3.28
     2.115724          0.00
     2.109585          2.24
     2.103757         13.20
     2.100817          1.98
     2.096977          1.13
     2.095746          0.14
     2.095586          7.94
     2.094804          4.73
     2.083969          0.81
     2.073752          0.29
     2.066303          0.60
     2.065578          1.22
     2.061278          0.17
     2.057454          2.02
     2.052822          1.30
     2.052221          0.01
     2.044889         15.47
     2.042094          5.15
     2.041126          0.00
     2.040246          1.13
     2.036248          0.28
     2.021854          0.56
     2.020843          0.46
     2.014248          0.91
     2.008653          0.44
     2.005360          3.63
     2.003730          7.67
     1.985875          0.00
     1.984144          0.31
     1.979005          0.08
     1.974119          0.58
     1.973884          0.00
     1.969488          0.00
     1.964786          4.85
     1.961885          0.30
     1.961621          0.26
     1.948353          7.45
     1.948191          0.15
     1.947685          0.02
     1.944805          0.03
     1.939187          0.48
     1.937924         26.43
     1.937433          1.03
     1.932294          1.60
     1.930016          1.13
     1.927447          0.08
     1.925314          0.72
     1.923539          0.29
     1.923508          0.12
     1.920451          0.03
     1.920091          0.00
     1.920020          0.37
     1.919287          0.29
     1.915888         10.23
     1.907956          2.20
     1.907117          0.02
     1.905685          0.17
     1.904101          0.03
     1.898017          0.07
     1.897778          0.00
     1.892560          3.17
     1.889030          5.69
     1.886500         17.67
     1.886402          7.20
     1.886284          0.21
     1.882995          0.08
     1.882189          5.79
     1.878143         15.97
     1.876295          2.59
     1.875494          0.30
     1.874925         24.55
     1.874394          0.82
     1.868699          4.56
     1.868471          0.41
     1.861900          0.14
     1.860032          0.04
     1.857888          0.00
     1.854916          3.41
     1.850088          0.44
     1.849894          0.00
     1.843404          3.98
     1.842661          0.08
     1.842398          0.16
     1.841579          0.04
     1.840345          0.08
     1.838601          0.62
     1.831283          0.51
     1.829507          4.70
     1.822376          0.18
     1.820851          1.10
     1.819789          0.09
     1.819464          0.00
     1.815048          0.48
     1.814970          0.06
     1.803781          1.05
     1.802576          1.65
     1.800145          0.00
     1.796658          0.01
     1.796487          0.03
     1.795583          9.54
     1.794598          0.09
     1.793268          1.29
     1.792749          0.00
     1.788382          0.27
     1.784345          0.08
     1.779648          0.02
     1.778834          3.01
     1.778764          0.15
     1.778055          0.21
     1.773780          0.00
     1.765325          0.57
     1.763830          1.07
     1.762285          0.36
     1.755574          1.03
     1.754598          0.68
     1.751448          0.03
     1.751296          1.81
     1.750619          2.28
     1.750525          2.76
     1.747063          0.15
     1.744102          0.44
     1.740944          0.07
     1.738342          0.32
     1.738158          0.18
     1.737494          1.99
     1.733898          1.21
     1.730814          0.83
     1.728263          0.32
     1.722162          0.48
     1.721608          1.25
     1.718362          0.65
##############################################################################
###                            Comments                                    ###
##############################################################################
###   Diffraction pattern calculated by Match!. 
###   I/Ic calculated by Match!. 
##############################################################################


