##############################################################################
###               Crystal structure data exported by Match!                ###
##############################################################################
###                           Data published by:                           ###
###                                                                        ###
###               COD (Crystallography Open Database)
##############################################################################
data_9008151
_citation_journal_full    'Zeitschrift fur Kristallographie'
_citation_journal_volume  '127'
_citation_page_first  '291'
_citation_page_last   '308'
_citation_year  '1968'
_citation_title  'The crystal structure of parawollastoniteLocality: Crestmore, California, USA'
loop_
_publ_author_name
  'Trojer F. J.'
_chemical_formula_sum  'Ca O3 Si'
_chemical_name_mineral  'Wollastonite-2M'
_symmetry_space_group_name_H-M 'P 1 21/a 1'
_space_group_IT_number 14
_space_group_crystal_system 'monoclinic'
loop_
_symmetry_equiv_pos_as_xyz
   'x, y, z'
   '-x+0.5, y+0.5, -z'
   '-x, -y, -z'
   'x+0.5, -y+0.5, z'
_cell_length_a       15.42600
_cell_length_b        7.32000
_cell_length_c        7.06600
_cell_angle_alpha    90.0000
_cell_angle_beta     95.4040
_cell_angle_gamma    90.0000
loop_
_atom_site_label
_atom_site_fract_x
_atom_site_fract_y
_atom_site_fract_z
_atom_site_occupancy
_atom_site_B_iso_or_equiv
ca      0.248   0.376   0.971    1.00000    0.589
ca      0.401   0.626   0.740    1.00000    0.681
ca      0.399   0.121   0.736    1.00000    0.696
si      0.408   0.091   0.231    1.00000    0.443
si      0.407   0.660   0.231    1.00000    0.498
si      0.302   0.376   0.443    1.00000    0.495
o      0.300   0.375   0.668    1.00000    0.501
o      0.216   0.376   0.303    1.00000    0.714
o      0.349   0.140   0.033    1.00000    0.618
o      0.347   0.616   0.035    1.00000    0.826
o      0.509   0.123   0.239    1.00000    1.000
o      0.508   0.618   0.235    1.00000    0.874
o      0.364   0.196   0.406    1.00000    0.623
o      0.363   0.553   0.407    1.00000    0.609
o      0.391   0.875   0.277    1.00000    0.634
_cell_measurement_wavelength    1.541874
_cell_measurement_radiation   'x-rays'
_exptl_crystal_density_diffrn    2.914000
loop_
_pd_peak_d_spacing
_pd_peak_intensity
     7.678719         73.45
     7.034594          2.55
     6.607780          0.59
     5.448899         12.92
     5.298300          2.82
     5.072107         10.24
     4.959571          2.18
     4.916677          4.05
     4.721699         16.69
     4.370871         48.85
     4.195074         23.23
     4.105897          9.46
     3.839359        157.35
     3.731967         72.08
     3.660000          0.21
     3.560290          1.63
     3.517297        198.25
     3.512050         22.08
     3.486608          1.75
     3.400056         45.04
     3.318295        276.86
     3.303890          0.09
     3.246834          0.04
     3.244063         16.31
     3.204934         18.44
     3.170300         19.99
     3.166456         33.56
     3.158371         67.97
     3.149036          0.01
     3.089518        211.39
     3.053929          0.14
     3.038234          0.12
     3.022259         68.59
     2.977310       1000.00
     2.965855          2.83
     2.944922          0.03
     2.846377          3.87
     2.832259         27.71
     2.803935         28.35
     2.797397         40.02
     2.724449         48.67
     2.710112          2.98
     2.689479          1.49
     2.649150          0.09
     2.598365          2.31
     2.559573         54.76
     2.553330          2.74
     2.551656         10.26
     2.536053          0.18
     2.534085          0.11
     2.529935         32.66
     2.481567          0.01
     2.479786         59.23
     2.475293        121.29
     2.458339          0.06
     2.427694          0.00
     2.416124          3.16
     2.409775          0.07
     2.360849          0.10
     2.352775         86.93
     2.350187          0.00
     2.348673          0.56
     2.344865         36.92
     2.336462         36.76
     2.335660         22.18
     2.325421          0.01
     2.305967          0.05
     2.305264          0.03
     2.304060        120.65
     2.290123          0.93
     2.281340         12.53
     2.269465          0.09
     2.238623          3.29
     2.233087          4.85
     2.226921          0.84
     2.225133          9.22
     2.213474         35.33
     2.202593          0.26
     2.197759          0.46
     2.189382          0.11
     2.185866          1.38
     2.185435          0.00
     2.184385        180.29
     2.182155          0.83
     2.169057         26.52
     2.126684          0.09
     2.117956          1.07
     2.117606          5.36
     2.101558          0.01
     2.097537          0.00
     2.094476          0.64
     2.090656          8.17
     2.079674          0.30
     2.078092          0.69
     2.065372          0.31
     2.059318          0.06
     2.053959          0.03
     2.052949          0.01
     2.024244         58.86
     2.010272          6.61
     2.004828          0.23
     2.003855          6.26
     2.001801          1.58
     1.982686          8.00
     1.982658         38.27
     1.978232          0.95
     1.974409          0.00
     1.974403          2.19
     1.968904          0.00
     1.965767          0.05
     1.965575          5.73
     1.949992          1.35
     1.949864          0.02
     1.938942         13.33
     1.922250          3.99
     1.919680         24.42
     1.914841          8.10
     1.913704          0.15
     1.910525          0.68
     1.901759          6.91
     1.897913          1.53
     1.893487         15.60
     1.893237          0.25
     1.888538          2.42
     1.881742         45.75
     1.880297          2.21
     1.876653          0.00
     1.871677         13.38
     1.865983          0.01
     1.859213          9.51
     1.856887          1.94
     1.855632         42.86
     1.837166          0.00
     1.833650          5.44
     1.830000        187.27
     1.817615         19.36
     1.817144          0.02
     1.817010          1.28
     1.816300          0.28
     1.815363          0.00
     1.809192         15.15
     1.794971         46.47
     1.782245         13.52
     1.780145          2.99
     1.771054          4.28
     1.766100          4.69
     1.764160          0.00
     1.762843          0.14
     1.758649         78.95
     1.756342          1.70
     1.756025          0.80
     1.754664          0.03
     1.750514         22.14
     1.743304          0.01
     1.739851         12.88
     1.739236          1.10
     1.736410          0.02
     1.734777          1.57
     1.733735          3.97
     1.724216        119.07
     1.723203          0.02
     1.721679         15.22
     1.717938         76.53
     1.716866          2.08
     1.716854         10.52
     1.709990          8.15
     1.707578          3.94
     1.702509          0.46
     1.701812          0.00
     1.700028          0.01
     1.693101          0.14
     1.690702          4.47
     1.687242          0.82
     1.686116          0.07
     1.684855          0.00
     1.682625         12.01
     1.680175          1.50
     1.675214          1.29
     1.668458          0.44
     1.668272          6.36
     1.661826          1.61
     1.661589          0.09
     1.659147          5.82
     1.653190          1.89
     1.651945          2.91
     1.651558          0.73
     1.640272          0.03
     1.639055          0.36
     1.638892          2.92
     1.637590         10.70
     1.631419          9.28
     1.628099          1.66
     1.626977          0.02
     1.623417         25.85
     1.622900          1.13
     1.622032          3.31
     1.621862          0.00
     1.621808          0.02
     1.621118          3.47
     1.618103          0.81
     1.614316          2.29
     1.612576          2.12
     1.607135          0.06
     1.606127         69.39
     1.604010          4.70
     1.602467         60.61
     1.593887          0.01
     1.590623          0.01
     1.587593          0.75
     1.585150          0.02
     1.585107          0.03
     1.583618          0.67
     1.583228          0.00
     1.579185          0.03
     1.579026          4.43
     1.574518         19.54
     1.573900          0.01
     1.572116          0.00
     1.567221          0.00
     1.565299          1.85
     1.563278         13.64
     1.559106          2.23
     1.558796          2.26
     1.555831          1.05
     1.551897         21.90
     1.550257          0.13
     1.546556          9.11
     1.544759          1.45
     1.538720          1.22
     1.538270         20.16
     1.535744         21.35
     1.530746          3.64
     1.529138         20.88
     1.528441          0.01
     1.526965          0.00
     1.525547          0.34
     1.524900          0.02
     1.521193          0.01
     1.519117         19.71
     1.518764          0.06
     1.517729         10.25
     1.511469          0.05
     1.511130          0.00
     1.509964          0.18
     1.508717          3.49
     1.506625          0.00
     1.503021          0.02
     1.499222          0.93
     1.498335          0.28
     1.498082          0.51
     1.488655         18.71
     1.486121          0.36
     1.484150          6.23
     1.482927          0.02
     1.479154         67.56
     1.472833          1.40
     1.472461         20.16
     1.471799         14.82
     1.462486         22.43
     1.461761          0.01
     1.460037         11.02
     1.458714         40.30
     1.457393          0.77
     1.456957          1.91
     1.453281          3.45
     1.452000          0.32
     1.444149          0.02
     1.442921          0.08
     1.442659          8.98
     1.441927          0.17
     1.440508          0.88
     1.440395          0.00
     1.439096          0.07
     1.438096          0.34
     1.434384          0.00
     1.433290          1.39
     1.433000         24.53
     1.430677          6.60
     1.430585          0.14
     1.429629          0.00
     1.428648          0.00
     1.426691          4.48
     1.425289          0.39
     1.424561          1.22
     1.423188          0.01
     1.422338          5.07
     1.421233          2.75
     1.418622          0.62
     1.416129          0.02
     1.413857          2.55
     1.412950          0.07
     1.412900          0.00
     1.412208          0.01
     1.410682          0.56
     1.410170          0.00
     1.410067          0.01
     1.407581          1.45
     1.407570          0.91
     1.406919          2.50
     1.405299          0.01
     1.404104          0.08
     1.403175          0.03
     1.402302          1.08
     1.401967          0.00
     1.398698         13.11
     1.398358          0.00
     1.395179          1.03
     1.394323          0.02
     1.392224          2.11
     1.389680         16.72
     1.387573          0.28
     1.387140          6.04
     1.385443          1.75
     1.383826          0.03
     1.382257          0.16
     1.381630          0.02
     1.376995          1.48
     1.373386          0.35
     1.373213         13.44
     1.372007          0.00
     1.371409          0.03
     1.370084          0.06
     1.368632          1.73
     1.368031          0.02
     1.367926          6.30
     1.366064          0.10
     1.365525          0.00
     1.365294          0.00
     1.364854          0.14
     1.363142          3.32
     1.362372          0.01
     1.362282         27.06
     1.362225          0.30
     1.361341          0.50
     1.361208         43.13
     1.355056          0.01
     1.351719          1.47
     1.351595          2.02
     1.351296          2.59
     1.350795          0.13
     1.350666         10.74
     1.347941          0.23
     1.344876          0.00
     1.344740          4.31
     1.344053          8.51
     1.342155          0.48
     1.340104          0.39
     1.339998         11.75
     1.339433          9.93
     1.339232          0.28
     1.338392          0.28
     1.338266          0.03
     1.335920          0.04
     1.335291          0.03
     1.334410          0.02
     1.333426          0.05
     1.332994          0.01
     1.325418          0.13
     1.324853          0.00
     1.324575          4.22
     1.323273          0.02
     1.322982          3.29
     1.321953          1.12
     1.321556          6.24
     1.319710          0.09
     1.318645          2.37
     1.318334          0.14
     1.317360          2.53
     1.313800          0.45
     1.313773          0.00
     1.313235          0.00
     1.308492          0.01
     1.306021          1.08
     1.305181          1.14
     1.304448          0.01
     1.303909          0.47
     1.303307          1.95
     1.300737          3.22
     1.299845          9.74
     1.299729          1.78
     1.299182          0.00
     1.298803          0.47
     1.297270          2.76
     1.296696          2.16
     1.295294          1.43
     1.292540          0.02
     1.289604          0.25
     1.289388          1.49
     1.289134          2.71
     1.288755          0.05
     1.286585         14.45
     1.285084          0.64
     1.282570          2.28
     1.280535         12.98
     1.279786          3.47
     1.278688          0.02
     1.277619          0.06
     1.277420          0.01
     1.276665          0.00
     1.275937          0.00
     1.275828          0.00
     1.270823          0.01
     1.270811          0.56
     1.268027         42.92
     1.267284          0.32
     1.267042          0.17
     1.266312          0.10
     1.265726          1.70
     1.264967          4.50
     1.263325          0.01
     1.262818          4.41
     1.261671          0.00
     1.261380          0.65
     1.260926          0.93
     1.260692          0.31
     1.260664          0.05
     1.260277          0.31
     1.259719          1.04
     1.257726          3.14
     1.256747          0.00
     1.253957          0.89
     1.252032          0.11
     1.250811          0.00
     1.248010          0.02
     1.247797          0.84
     1.245955          0.29
     1.243989          0.31
     1.243643          0.01
     1.243187          0.13
     1.242786          0.83
     1.241836          2.97
     1.240783          1.66
     1.240463          3.44
     1.240125          0.23
     1.239893         12.47
     1.239501          0.14
     1.238803          0.01
     1.238743          1.37
     1.237646          0.24
     1.236024          2.37
     1.235659          0.60
     1.234629          0.67
     1.232866          1.77
     1.232622          0.00
     1.229169          5.03
     1.228091          2.35
     1.226741          0.38
     1.223333          0.33
     1.222894          0.01
     1.222480          0.50
     1.221377          0.00
     1.221150          2.22
     1.220932          1.70
     1.220865          3.04
     1.220000          0.04
     1.219250          0.13
     1.218820          0.17
     1.218563          0.76
     1.217766          0.77
     1.216384          0.00
     1.216169          2.06
     1.215509          2.17
     1.214838          6.50
     1.214517          0.01
     1.213884         26.82
     1.213847          1.20
     1.213464          0.00
     1.212514          0.00
     1.211786          4.57
     1.211775          0.01
     1.210871          0.53
     1.210603          0.41
     1.210403          0.00
     1.208692          0.01
     1.208093          0.09
     1.208062          0.00
     1.207561          2.00
     1.207256          0.16
     1.204887          0.01
     1.202559          0.01
     1.202057          0.00
     1.201196          0.00
     1.199894          0.14
     1.199210          1.88
     1.198446          0.10
     1.196894          4.10
     1.193275          2.74
     1.190524          0.02
     1.190026          0.03
     1.189514          2.72
     1.189451          0.67
     1.189416          0.00
     1.189401          3.98
     1.188827          0.05
     1.188739          0.07
     1.186789          5.02
     1.186763         18.70
     1.186663          0.78
     1.185094          0.18
     1.184683          0.01
##############################################################################
###                            Comments                                    ###
##############################################################################
###   Diffraction pattern calculated by Match!. 
###   I/Ic calculated by Match!. 
##############################################################################


