##############################################################################
###               Crystal structure data exported by Match!                ###
##############################################################################
###                           Data published by:                           ###
###                                                                        ###
###               COD (Crystallography Open Database)
##############################################################################
data_9009515
_citation_journal_full    'Mineralogical Magazine'
_citation_journal_volume  '64'
_citation_page_first  '291'
_citation_page_last   '300'
_citation_year  '2000'
_citation_title  'A high temperature structural phase transition in crocoite (PbCrO4) at 1068K: crystal structure refinement at 1073 K and thermal expansion tensordetermination at 1000 K Sample: the high temperature form at T = 1073 KLocality: Dundas, Tasmania'
loop_
_publ_author_name
  'Knight K. S.'
_chemical_formula_sum  'Cr O4 Pb'
_chemical_name_mineral  'Crocoite'
_symmetry_space_group_name_H-M 'P n m a'
_space_group_IT_number 62
_space_group_crystal_system 'orthorhombic'
loop_
_symmetry_equiv_pos_as_xyz
   'x, y, z'
   '-x+0.5, -y, z+0.5'
   'x+0.5, -y+0.5, -z+0.5'
   '-x, y+0.5, -z'
   '-x, -y, -z'
   'x+0.5, y, -z+0.5'
   '-x+0.5, y+0.5, z+0.5'
   'x, -y+0.5, z'
_cell_length_a        8.79861
_cell_length_b        5.73422
_cell_length_c        7.27402
_cell_angle_alpha    90.0000
_cell_angle_beta     90.0000
_cell_angle_gamma    90.0000
loop_
_atom_site_label
_atom_site_fract_x
_atom_site_fract_y
_atom_site_fract_z
_atom_site_occupancy
_atom_site_B_iso_or_equiv
pb      0.182   0.250   0.164    1.00000    10.185
cr      0.059   0.250   0.682    1.00000    4.816
o      0.188   0.250   0.534    1.00000    10.580
o      0.890   0.250   0.597    1.00000    11.606
o      0.077   0.015   0.812    1.00000    10.106
_cell_measurement_wavelength    1.541874
_cell_measurement_radiation   'x-rays'
_cell_measurement_temperature    1073.000000
_exptl_crystal_density_diffrn    5.849000
loop_
_pd_peak_d_spacing
_pd_peak_intensity
     5.606238         21.37
     4.503227        593.90
     4.399305        160.24
     4.008691        517.40
     3.764383        183.25
     3.637010        298.13
     3.490414       1000.00
     3.361170        634.79
     3.146877        920.06
     2.899734        479.52
     2.867110        470.23
     2.803119          0.72
     2.720091         85.17
     2.552661          1.26
     2.518326        151.72
     2.457606         17.56
     2.402022         76.49
     2.337539         15.15
     2.283046          8.40
     2.280880        142.13
     2.251613         46.45
     2.233232          0.27
     2.199652          4.85
     2.181321        284.44
     2.164596        235.48
     2.123506          5.12
     2.121110        179.63
     2.105490        218.85
     2.053733         63.26
     2.004346          4.91
     1.991347          0.89
     1.976467          2.42
     1.973323         43.38
     1.882191          0.32
     1.868746         91.67
     1.848648         17.06
     1.818505         10.91
     1.811717          0.05
     1.809147         16.38
     1.788318          2.19
     1.785989          0.18
     1.780866         34.09
     1.776774         36.97
     1.753088         44.53
     1.745207          0.67
     1.710384          7.28
     1.706438          0.79
     1.704291         50.09
     1.700734         32.38
     1.697047         86.26
     1.680585          2.98
     1.661534         34.18
     1.639026         10.96
     1.629147          0.87
     1.612748          7.90
     1.584051          1.34
     1.579207         11.49
     1.573438          0.00
     1.567127          0.11
     1.565558         60.89
     1.563899          2.63
     1.545523          0.07
     1.535661          7.03
     1.526863         14.36
     1.512793         30.12
     1.501076          0.08
     1.492270          9.32
     1.479696         17.86
     1.468871          6.77
     1.466435          1.44
     1.465580         14.53
     1.449867          1.96
     1.442791          4.94
     1.437514          0.07
     1.435316          0.02
     1.433555         15.21
     1.424177          9.00
     1.420713          9.74
     1.420654          0.11
     1.416450          0.17
     1.415221          0.40
     1.410129          4.87
     1.401559          0.11
     1.394367         17.28
     1.392361          0.66
     1.388868          0.01
     1.386510          0.12
     1.382185         15.54
     1.381240          2.10
     1.363015          0.54
     1.361481          3.07
     1.360452          1.68
     1.360046          0.07
     1.342833          8.25
     1.341120          0.17
     1.339698          1.02
     1.336230          6.39
     1.333692          3.80
     1.323333          2.33
     1.318630          8.50
     1.305576          2.12
     1.303277          1.63
     1.302970          6.07
     1.285041          0.07
     1.283470          0.70
     1.276330          0.00
     1.275487          9.58
     1.274590          1.82
     1.270866          2.15
     1.268208          1.99
     1.264582          0.00
     1.262114          1.18
     1.259163          0.08
     1.254794          0.03
     1.244367          1.92
     1.239885          0.01
     1.238588          0.03
     1.234909          1.72
     1.228803          0.29
     1.225789          0.02
     1.222048          0.00
     1.219655          1.77
     1.214060          0.00
     1.213423          3.89
     1.212337          2.74
     1.210668          0.47
     1.201805          1.13
     1.201011          0.07
     1.200990          0.00
     1.188151          0.16
     1.187999          2.69
     1.187135          0.10
     1.186453          1.56
     1.184968          7.91
     1.175484          0.23
     1.168770          0.12
     1.163471          1.81
     1.163295          0.79
     1.157637          0.64
     1.157036          0.10
     1.149525          0.03
     1.148868          3.03
     1.147745          0.06
     1.145223          3.54
     1.142026          3.40
     1.141523          0.19
     1.140440          0.01
     1.137429          3.87
     1.137027          0.10
     1.132850          0.06
     1.130264          0.48
     1.125807          0.46
     1.123576          0.29
     1.121248          0.16
     1.120390          0.08
     1.119555          0.28
     1.119526          1.58
     1.117465          3.20
     1.116703          1.78
     1.116616          2.14
     1.115913          0.08
     1.109755          1.47
     1.108151          0.57
     1.107731          0.03
     1.100408          0.97
     1.099826          1.28
     1.099598          0.09
     1.098681          0.39
     1.097513          2.35
     1.097061          1.81
     1.095364          0.82
     1.090661          0.12
     1.087466          0.03
     1.085402          1.09
     1.082298          0.13
     1.080138          0.13
     1.076791          0.67
     1.076220          0.07
     1.068423          0.05
     1.062910          0.00
     1.061753          0.01
     1.061443          0.56
     1.060555          0.17
     1.056758          0.14
     1.054657          0.25
     1.052745          0.49
     1.051033          0.13
     1.048959          0.01
     1.044236          0.31
     1.044007          0.15
     1.043543          0.21
     1.039923          0.28
     1.039436          0.08
     1.036725          0.02
     1.035440          0.04
     1.033987          0.63
     1.032789          0.02
     1.031973          0.05
     1.029602          0.44
     1.026867          1.15
     1.025104          0.04
     1.024811          0.34
     1.024428          0.02
     1.022492          0.00
     1.017576          0.43
     1.016926          0.02
     1.016913          0.11
     1.016785          0.00
     1.016435          0.82
     1.015657          0.25
     1.015073          0.01
     1.014299          0.09
     1.011316          0.00
     1.010345          0.76
     1.009084          0.02
     1.008991          0.29
     1.007132          0.02
##############################################################################
###                            Comments                                    ###
##############################################################################
###   Diffraction pattern calculated by Match!. 
###   I/Ic calculated by Match!. 
###   Space group has been derived from given symmetry operations. 
##############################################################################


