##############################################################################
###               Crystal structure data exported by Match!                ###
##############################################################################
###                           Data published by:                           ###
###                                                                        ###
###               COD (Crystallography Open Database)
##############################################################################
data_4124498
_citation_journal_full    'Journal of the American Chemical Society'
_citation_journal_volume  '125'
_citation_page_first  '10050'
_citation_page_last   '10056'
_citation_year  '2003'
_citation_title  'Surface structures of Sr Ti O3 (001): A (Ti O2)-rich reconstruction witha c(4 X 2) unit cell'
loop_
_publ_author_name
  'Erdman N.'
  'Asta M.'
  'Warschkow O.'
  'Ellis D.E.'
  'Poeppelmeier K.R.'
  'Marks L.D.'
_chemical_formula_sum  'O2 Ti'
_chemical_name_common  'Titanium(IV) oxide'
_symmetry_space_group_name_H-M 'P 1'
_space_group_IT_number 1
_space_group_crystal_system 'triclinic'
loop_
_symmetry_equiv_pos_as_xyz
   'x, y, z'
_cell_length_a       15.62000
_cell_length_b        7.81000
_cell_length_c       12.93200
_cell_angle_alpha    90.0000
_cell_angle_beta     90.0000
_cell_angle_gamma    90.0000
_cell_formula_units_Z 8
loop_
_atom_site_label
_atom_site_fract_x
_atom_site_fract_y
_atom_site_fract_z
_atom_site_occupancy
_atom_site_B_iso_or_equiv
o      0.255   0.500   0.915    1.00000    1.000
o      0.000   0.000   0.923    1.00000    1.000
o      0.623   0.792   1.000    1.00000    1.000
o      0.500   0.500   0.923    1.00000    1.000
ti      0.000   0.746   0.944    1.00000    1.000
o      0.000   0.500   0.916    1.00000    1.000
o      0.123   0.708   1.000    1.00000    1.000
o      0.500   0.000   0.916    1.00000    1.000
o      0.877   0.708   1.000    1.00000    1.000
o      0.377   0.208   1.000    1.00000    1.000
ti      0.000   0.254   0.944    1.00000    1.000
ti      0.124   0.500   0.941    1.00000    1.000
ti      0.500   0.246   0.944    1.00000    1.000
ti      0.500   0.754   0.944    1.00000    1.000
o      0.754   0.000   0.915    1.00000    1.000
ti      0.624   0.000   0.941    1.00000    1.000
o      0.877   0.292   1.000    1.00000    1.000
o      0.123   0.292   1.000    1.00000    1.000
ti      0.876   0.500   0.941    1.00000    1.000
o      0.623   0.208   1.000    1.00000    1.000
ti      0.376   0.000   0.941    1.00000    1.000
o      0.746   0.500   0.915    1.00000    1.000
o      0.245   0.000   0.915    1.00000    1.000
o      0.377   0.792   1.000    1.00000    1.000
_cell_measurement_wavelength    1.541874
_cell_measurement_radiation   'x-rays'
_exptl_crystal_density_diffrn    0.672000
loop_
_pd_peak_d_spacing
_pd_peak_intensity
    12.932000       1000.00
     7.810000         30.69
     6.985476         33.36
     6.685406         43.07
     6.466000        199.30
     6.146122         48.44
     4.980570         21.30
     4.745185         24.13
     4.332209          8.21
     4.310667         62.68
     4.107836         14.10
     3.905000          0.06
     3.773976         10.46
     3.738285          2.63
     3.668420         11.04
     3.599072          9.49
     3.492738          7.82
     3.371919         14.09
     3.342703          6.88
     3.233000         22.74
     3.073061         10.63
     3.055689          5.59
     2.987174          5.47
     2.934003          5.09
     2.900561          3.71
     2.894069          8.70
     2.830243          6.76
     2.761252          1.78
     2.713743          7.15
     2.700381          3.96
     2.646482          5.20
     2.603333          1.36
     2.591031          3.11
     2.586400          8.77
     2.567912          0.23
     2.552134          2.58
     2.539395          4.91
     2.518735          0.62
     2.490285          7.76
     2.455267          3.03
     2.425485          2.41
     2.414947          2.24
     2.406490          3.52
     2.386592          0.98
     2.372593          4.52
     2.328492          0.37
     2.325129          5.87
     2.291640          0.85
     2.228469          1.80
     2.220737          1.70
     2.206130          1.27
     2.190770          1.08
     2.166104          1.77
     2.159002          2.18
     2.156321          5.57
     2.155333          3.56
     2.145572          1.34
     2.136343          3.38
     2.116638          2.50
     2.099670          6.36
     2.078552          2.78
     2.077667          1.75
     2.059528          1.19
     2.053918          2.97
     2.048707          1.28
     2.036389          2.04
     2.027671          1.37
     2.010799          1.32
     1.999936          0.33
     1.976441          0.75
     1.952500         12.26
     1.935484          2.42
     1.930619         22.89
     1.930413          1.29
     1.929704          0.95
     1.920795          1.48
     1.910631          0.94
     1.894203          1.15
     1.889448          1.34
     1.887650          6.20
     1.886988          3.41
     1.874205          2.22
##############################################################################
###                            Comments                                    ###
##############################################################################
###   Diffraction pattern calculated by Match!. 
###   I/Ic calculated by Match!. 
###   Space group has been derived from given symmetry operations. 
##############################################################################


