##############################################################################
###               Crystal structure data exported by Match!                ###
##############################################################################
###                           Data published by:                           ###
###                                                                        ###
###               COD (Crystallography Open Database)
##############################################################################
data_4002434
_citation_journal_full    'Chemistry of Materials (1,1989-)'
_citation_journal_volume  '18'
_citation_page_first  '1464'
_citation_page_last   '1469'
_citation_year  '2006'
_citation_title  'Magic silica clusters as nanoscale building units forsuper-(tris)tetrahedral materials'
loop_
_publ_author_name
  'Wojdel J.C.'
  'Zwijnenburg M.A.'
  'Bromley S.T.'
_chemical_formula_sum  'O2 Si'
_chemical_name_common  'Silica'
_symmetry_space_group_name_H-M 'P -1'
_space_group_IT_number 2
_space_group_crystal_system 'triclinic'
loop_
_symmetry_equiv_pos_as_xyz
   'x, y, z'
   '-x, -y, -z'
_cell_length_a       13.50000
_cell_length_b       13.50000
_cell_length_c        5.43210
_cell_angle_alpha    95.6790
_cell_angle_beta     84.3350
_cell_angle_gamma    91.6260
_cell_formula_units_Z 16
loop_
_atom_site_label
_atom_site_fract_x
_atom_site_fract_y
_atom_site_fract_z
_atom_site_occupancy
_atom_site_B_iso_or_equiv
o      0.976   0.976   0.297    1.00000    1.000
o      0.174   0.038   0.322    1.00000    1.000
o      0.323   0.466   0.390    1.00000    1.000
si      0.250   0.400   0.209    1.00000    1.000
si      0.442   0.058   0.956    1.00000    1.000
o      0.323   0.178   0.291    1.00000    1.000
si      0.246   0.103   0.136    1.00000    1.000
o      0.019   0.481   0.783    1.00000    1.000
o      0.464   0.178   0.935    1.00000    1.000
si      0.059   0.441   0.038    1.00000    1.000
o      0.476   0.476   0.703    1.00000    1.000
si      0.057   0.060   0.421    1.00000    1.000
o      0.322   0.036   0.935    1.00000    1.000
si      0.440   0.443   0.420    1.00000    1.000
o      0.519   0.981   0.782    1.00000    1.000
si      0.100   0.250   0.210    1.00000    1.000
o      0.326   0.330   0.012    1.00000    1.000
si      0.397   0.254   0.135    1.00000    1.000
o      0.177   0.465   0.067    1.00000    1.000
o      0.035   0.323   0.067    1.00000    1.000
o      0.034   0.177   0.390    1.00000    1.000
o      0.170   0.173   0.012    1.00000    1.000
o      0.174   0.326   0.367    1.00000    1.000
o      0.463   0.326   0.321    1.00000    1.000
_cell_measurement_wavelength    1.541874
_cell_measurement_radiation   'x-rays'
_exptl_crystal_density_diffrn    1.628000
loop_
_pd_peak_d_spacing
_pd_peak_intensity
    13.431695          0.39
    13.431369          0.40
     9.588038       1000.00
     9.409533        908.25
     6.715847        134.05
     6.715684        133.78
     6.052472          0.10
     6.052383          0.08
     5.962161          0.00
     5.962075          0.00
     5.380255         83.24
     5.169938        207.32
     5.169476        208.04
     4.995019         28.53
     4.836113        114.18
     4.835704        115.17
     4.794019         15.90
     4.704766          8.39
     4.671001        242.73
     4.670293        242.15
     4.477232          0.00
     4.477123          0.00
     4.438216         87.40
     4.412192         13.19
     4.411641         13.25
     4.310275         27.00
     4.310029         27.02
     4.271613         35.86
     4.271529         36.08
     4.223721         42.31
     4.223640         42.51
     4.082628          1.07
     4.081946          1.00
     4.014345          0.00
     4.013860          0.00
     3.912146          0.75
     3.911497          0.69
     3.852728         27.07
     3.783539          0.03
     3.783329          0.04
     3.757989          0.07
     3.757953          0.09
     3.693360          0.00
     3.693326          0.00
     3.617673          0.76
     3.617237          0.75
     3.565566          3.72
     3.565299          3.81
     3.541971          2.12
     3.541353          2.21
     3.425046         14.39
     3.424530         14.11
     3.357924         17.26
     3.357842         17.12
     3.356835          8.64
     3.297019         10.39
     3.296919         10.36
     3.289099          0.35
     3.288685          0.34
     3.272160          0.02
     3.272089          0.02
     3.243351          0.01
     3.243282          0.01
     3.228666          9.45
     3.228161          9.40
     3.196013          0.94
     3.161794          3.62
     3.161540          3.61
     3.136511          0.84
     3.083620          4.67
     3.083130          4.57
     3.026236         19.15
     3.026192         19.53
     3.008161          2.94
     3.007669          2.87
     2.981080         18.12
     2.981037         17.87
     2.980955          0.03
     2.980643          0.03
     2.954281          0.39
     2.954064          0.40
     2.930866          0.02
     2.902387         23.37
     2.902286         23.42
     2.867933          0.45
     2.867570          0.44
     2.798324          7.36
     2.798207          7.42
     2.732752          0.04
     2.732424          0.05
     2.710878          0.08
     2.710859          0.09
     2.709892         27.54
     2.709476         27.97
     2.695751          0.01
     2.695371          0.01
     2.690128          0.20
     2.688276          0.06
     2.688255          0.04
     2.688123          0.03
     2.686339          0.01
     2.686274          0.02
     2.662409          0.01
     2.662391          0.00
     2.660374          0.18
     2.660139          0.20
     2.656435         44.79
     2.656074         45.02
     2.643741          6.89
     2.643681          6.82
     2.624702          7.94
     2.624643          8.13
     2.595199          8.30
     2.590096          0.00
     2.589972          0.00
     2.586788          0.00
     2.586675          0.00
     2.586620          0.63
     2.586379          0.60
     2.584969          0.10
     2.584738          0.10
     2.565648         23.61
     2.565605         23.52
     2.561624         13.72
     2.561246         14.05
     2.510515          0.00
     2.510470          0.00
     2.501971          4.21
     2.501965          0.84
     2.501856         15.58
     2.501745          0.82
     2.501722         15.55
     2.497509          8.82
     2.492606          6.57
     2.492289          6.77
     2.487734          0.09
     2.487569          0.08
     2.478189          0.00
     2.478146          0.00
     2.432510          0.31
     2.432256          0.31
     2.418056          2.19
     2.417852          2.25
     2.414017          4.52
     2.413836          4.44
     2.413761          4.00
     2.413462          4.10
     2.411077          4.22
     2.410801          4.33
     2.404746          0.05
     2.404420          0.06
     2.397009          3.45
     2.393876          0.09
     2.393771          0.10
     2.368443          0.02
     2.368107          0.02
     2.352383          3.05
     2.347229          0.20
     2.347134          0.22
     2.342313          0.38
     2.342232          0.40
     2.335501          0.03
     2.335146          0.05
     2.334282          0.23
     2.333942          0.25
     2.322839         15.70
     2.322812         16.05
     2.315830          1.40
     2.315572          1.42
     2.311155          0.04
     2.298270         14.09
     2.298216         14.27
     2.298150          0.03
     2.297889          0.03
     2.291927          0.94
     2.291637          0.88
     2.284640         15.78
     2.284614         15.51
     2.272508          0.02
     2.272307          0.03
     2.244471          1.15
     2.244417          1.14
     2.238616          0.12
     2.238561          0.10
     2.219108          5.28
     2.214915          0.03
     2.214864          0.03
     2.213924         16.98
     2.213607          0.65
     2.213368          0.65
     2.209470          0.57
     2.209267          0.57
     2.209187          1.08
     2.208875          1.11
     2.206663          0.16
     2.206371          0.20
     2.206096          2.33
     2.205820          2.33
     2.202650         10.86
     2.202286         10.60
     2.201457          0.01
     2.201407          0.01
     2.172370          0.00
     2.172234          0.01
     2.159932          1.33
     2.159781          1.31
     2.155510          1.33
     2.155231          1.41
     2.155137          8.69
     2.155014          8.83
     2.147681          4.91
     2.147329          4.81
     2.145783          4.92
     2.145460          4.78
     2.141527          0.40
     2.141369          0.42
     2.135807          0.61
     2.135765          0.59
     2.133593          2.10
     2.133469          2.07
     2.128311          5.67
     2.128063          5.75
     2.117155          0.02
     2.117143          0.02
     2.111860          0.43
     2.111820          0.48
     2.096525          0.25
     2.096344          0.25
     2.085303          3.13
     2.078691          0.00
     2.078680          0.00
     2.078612          0.29
     2.078342          0.31
     2.074423          2.41
     2.074337          2.35
     2.069034          5.95
     2.069014          5.92
     2.059762          0.40
     2.059695          0.42
     2.054781          0.85
     2.054729          0.91
     2.042131          0.17
     2.041776          0.18
     2.041314          0.02
     2.040973          0.03
     2.035945          0.11
     2.035868          0.12
     2.017491          0.01
     2.017461          0.00
     2.007819          4.25
     2.007629          4.29
     2.007173          0.60
     2.006930          0.60
     2.003312          0.40
     2.003115          0.42
     2.003038          0.07
     2.002742          0.08
     1.999963          0.13
     1.999711          0.12
     1.999597          0.17
     1.999391          0.16
     1.987387          0.00
     1.987358          0.00
     1.983336          0.52
     1.983109          0.59
     1.975729          0.02
     1.975677          0.02
     1.972308          1.44
     1.972138          1.47
     1.967692          0.01
     1.967518          0.01
     1.963199          0.00
     1.956073          0.54
     1.955749          0.55
     1.953921          0.13
     1.953633          0.14
     1.948924          1.98
     1.948702          2.03
     1.931146         23.99
     1.929451          1.61
     1.929217          1.61
     1.926561          5.30
     1.926364          7.09
     1.926332          5.37
     1.918814          0.00
     1.918767          0.00
     1.917608          1.95
     1.910864         12.92
     1.910531         13.01
     1.906494          4.94
     1.906367          5.00
     1.904545          1.30
     1.904500          1.31
     1.894550          1.74
     1.894506          1.71
     1.891769          8.44
     1.891664          8.50
     1.890871          0.88
     1.890684          0.91
     1.890592          1.43
     1.887261          0.79
     1.887182          0.83
     1.884157          0.82
     1.884126          0.85
     1.881907          4.20
     1.878994          1.22
     1.878976          1.28
     1.874642          4.11
     1.874315          4.21
     1.873377          4.03
     1.873075          3.98
     1.865222          0.31
     1.865107          0.34
     1.860643          0.63
     1.860550          0.60
     1.854208          0.01
     1.854170          0.01
     1.853562          0.39
     1.853535          0.38
     1.846680          0.39
     1.846663          0.38
     1.838927          0.40
     1.838710          0.38
     1.835891          0.00
     1.835854          0.00
     1.834618          3.18
     1.834486          3.26
     1.821638          0.87
     1.821570          0.88
     1.815365          0.42
     1.815137          0.40
     1.812898          0.00
     1.812814          0.00
     1.811933          0.60
     1.811754          0.61
     1.811685          0.01
     1.811417          0.01
     1.808837          1.17
     1.808618          1.19
     1.808468          2.81
     1.800622          0.28
     1.800562          0.31
     1.793418          1.62
     1.791271          0.10
     1.791226          0.10
     1.786903          0.54
     1.786871          0.58
     1.786593          0.17
     1.786416          0.17
     1.784141          0.36
     1.784084          0.38
     1.782783          4.73
     1.782650          4.65
     1.776472          0.35
     1.776277          0.34
     1.776129          0.89
     1.776022          0.00
     1.775908          0.00
     1.775840          0.86
     1.775785          2.58
     1.775754          2.54
     1.773978          0.85
     1.773732          0.90
     1.773709          0.13
     1.773568          0.12
     1.770986          0.77
     1.770676          0.75
     1.770451          1.27
     1.770154          1.21
     1.761762          0.01
     1.761648          0.01
     1.761283          1.37
     1.761152          1.47
     1.760977          1.48
     1.755577          0.30
     1.755519          0.32
     1.754583          0.50
     1.754415          0.53
     1.754275          0.02
     1.754229          0.02
     1.751783          3.12
     1.751754          3.14
     1.743014          2.41
     1.742833          2.51
     1.738153          2.27
     1.737991          2.31
     1.736605          1.66
     1.736461          1.65
     1.735852          0.02
     1.735844          0.02
     1.732683          1.35
     1.732488          1.33
     1.732374          0.01
     1.731267          3.89
     1.731165          3.92
     1.729725          0.00
     1.729603          0.00
     1.725780          0.00
     1.725691          0.00
     1.723313          1.68
     1.723159          1.70
     1.722525          0.12
     1.722515          0.12
     1.720510          0.85
     1.713976          0.36
     1.713685          0.37
     1.712523          0.62
     1.712265          0.61
     1.710880          0.21
     1.710831          0.22
     1.704059          0.00
     1.704052          0.00
     1.703764          3.20
     1.703716          3.11
     1.703586          0.02
     1.703401          0.01
     1.697533          1.36
     1.697378          1.40
     1.692502          1.99
     1.692398          1.97
     1.691677          0.14
     1.691563          0.15
     1.691032          0.04
     1.690890          0.05
     1.688151          0.31
     1.687955          0.27
     1.679638          0.01
     1.679617          0.01
     1.678962          3.37
     1.678921          3.41
     1.678417          0.04
     1.675892          0.45
     1.675696          0.41
     1.674380          2.26
     1.669863          0.00
     1.669823          0.00
     1.667559          0.01
     1.667531          0.01
     1.665006          3.97
     1.662156          0.00
     1.662117          0.00
     1.661492          0.26
     1.661442          0.27
     1.657021          0.91
     1.657008          0.20
     1.656888          0.91
     1.656728          0.22
     1.652663          0.00
     1.652643          0.00
     1.652373          0.31
     1.652300          0.29
     1.649575          0.39
     1.649398          0.40
     1.648659          0.14
     1.648573          0.15
     1.648510          0.81
     1.648459          0.85
     1.645959          0.07
     1.645889          0.09
     1.644549          0.78
     1.644342          0.79
     1.641630          0.12
     1.641568          4.32
     1.641452          0.11
     1.641412          4.33
     1.641351          6.15
     1.641115          6.17
     1.639579          1.73
     1.639494          1.78
     1.638806          7.21
     1.638621          7.31
     1.636080          1.33
     1.636044          1.30
     1.633224          0.01
     1.632946          0.01
     1.632384          0.01
     1.632128          0.01
     1.630486          0.90
     1.630359          1.69
     1.630263          0.91
     1.630200          1.65
     1.626963          0.00
     1.626865          0.00
     1.625711          0.88
     1.625628          0.87
     1.623513          0.22
     1.623344          0.21
     1.621676          1.34
     1.621641          1.35
     1.620241          0.25
     1.620118          0.25
     1.619215          0.20
     1.619161          0.21
     1.618909          1.34
     1.618740          1.31
     1.618216          1.01
     1.618004          1.01
     1.615943          0.28
     1.615762          0.28
##############################################################################
###                            Comments                                    ###
##############################################################################
###   Diffraction pattern calculated by Match!. 
###   I/Ic calculated by Match!. 
###   Space group has been derived from given symmetry operations. 
##############################################################################


