##############################################################################
###               Crystal structure data exported by Match!                ###
##############################################################################
###                           Data published by:                           ###
###                                                                        ###
###               COD (Crystallography Open Database)
##############################################################################
data_1011262
_citation_journal_full    'Zeitschrift fuer Kristallographie, Kristallgeometrie, Kristallphysik,Kristallchemie (-144,1977)'
_citation_journal_volume  '64'
_citation_page_first  '475'
_citation_page_last   '490'
_citation_year  '1926'
_citation_title  'Ueber die Kristallstruktur von Hausmannit (Mn Mn2 O4).'
loop_
_publ_author_name
  'Aminoff G'
_chemical_formula_sum  'Mn3 O4'
_chemical_name_mineral  'Hausmannite'
_chemical_name_common  'Manganese(II,III) oxide'
_symmetry_space_group_name_H-M 'I 41/a m d'
_space_group_IT_number 141
_space_group_crystal_system 'tetragonal'
loop_
_symmetry_equiv_pos_as_xyz
   'x, y, z'
   'x+0.5, y+0.5, z+0.5'
   '-x, -y+0.5, -z+0.25'
   '-x+0.5, -y, -z+0.75'
   '-y, x+0.5, z+0.25'
   '-y+0.5, x, z+0.75'
   '-x, -y, z'
   '-x+0.5, -y+0.5, z+0.5'
   'y, -x+0.5, z+0.25'
   'y+0.5, -x, z+0.75'
   'y, -x, -z'
   'y+0.5, -x+0.5, -z+0.5'
   '-y, x, -z'
   '-y+0.5, x+0.5, -z+0.5'
   'x, -y+0.5, -z+0.25'
   'x+0.5, -y, -z+0.75'
   '-x, y+0.5, -z+0.25'
   '-x+0.5, y, -z+0.75'
   'y, x, -z'
   'y+0.5, x+0.5, -z+0.5'
   '-y, -x, -z'
   '-y+0.5, -x+0.5, -z+0.5'
   'x, y+0.5, -z+0.25'
   'x+0.5, y, -z+0.75'
   '-x, y, z'
   '-x+0.5, y+0.5, z+0.5'
   'x, -y, z'
   'x+0.5, -y+0.5, z+0.5'
   '-y, -x+0.5, z+0.25'
   '-y+0.5, -x, z+0.75'
   'y, x+0.5, z+0.25'
   'y+0.5, x, z+0.75'
_cell_length_a        5.76200
_cell_length_b        5.76200
_cell_length_c        9.43900
_cell_angle_alpha    90.0000
_cell_angle_beta     90.0000
_cell_angle_gamma    90.0000
_cell_formula_units_Z 4
loop_
_atom_site_label
_atom_site_fract_x
_atom_site_fract_y
_atom_site_fract_z
_atom_site_occupancy
_atom_site_B_iso_or_equiv
mn      0.000   0.000   0.000    1.00000    1.000
mn      0.500   0.250   0.125    1.00000    1.000
o      0.000   0.250   0.375    1.00000    1.000
_cell_measurement_wavelength    1.541874
_cell_measurement_radiation   'x-rays'
_exptl_crystal_density_diffrn    4.849000
_exptl_crystal_density_meas      4.840000
loop_
_pd_peak_d_spacing
_pd_peak_intensity
     4.918065         95.86
     3.084073        326.89
     2.881000        134.22
     2.761462        690.05
     2.485875       1000.00
     2.459032        112.06
     2.359750        170.32
     2.037175        197.86
     1.993569         14.07
     1.882098          5.71
     1.825548         59.39
     1.793971        162.00
     1.699818         90.24
     1.639355        113.86
     1.575668        193.89
     1.542036        487.78
     1.522863          4.96
     1.467570         24.74
     1.440500        180.68
     1.424833          3.74
     1.382421          3.29
     1.380731         20.64
     1.346346         49.85
     1.312955          1.32
     1.305151         14.96
     1.288422         14.16
     1.277175         79.47
     1.242937         28.27
     1.229516         42.65
     1.219731          1.92
     1.194737         60.01
     1.190760         20.31
     1.179875         37.28
     1.143906          2.23
     1.130841         16.55
     1.123214         47.01
     1.103605          0.65
     1.098959         14.89
     1.091859          7.27
     1.082101         61.63
     1.063168         38.73
     1.031825          0.52
     1.030580         35.21
     1.028024          6.00
     1.020995         20.49
     1.018587         43.69
     1.013003          0.99
##############################################################################
###                            Comments                                    ###
##############################################################################
###   from Langban, Sweden
###   Diffraction pattern calculated by Match!. 
###   I/Ic calculated by Match!. 
###   Space group has been derived from given symmetry operations. 
##############################################################################


