##############################################################################
###               Crystal structure data exported by Match!                ###
##############################################################################
###                           Data published by:                           ###
###                                                                        ###
###               COD (Crystallography Open Database)
##############################################################################
data_9011412
_citation_journal_full    'Zeitschrift fur Kristallographie'
_citation_journal_volume  '103'
_citation_page_first  '73'
_citation_page_last   '89'
_citation_year  '1940'
_citation_title  'Uber die kristallstruktur von alpha-AlOOH (diaspore) und alpha-FeOOH(nadeleisenerz) Locality: Synthetic'
loop_
_publ_author_name
  'Hoppe W.'
_chemical_formula_sum  'Fe O2'
_chemical_name_mineral  'Goethite'
_symmetry_space_group_name_H-M 'P b n m'
_space_group_IT_number 62
_space_group_crystal_system 'orthorhombic'
loop_
_symmetry_equiv_pos_as_xyz
   'x, y, z'
   '-x, -y, z+0.5'
   'x+0.5, -y+0.5, -z'
   '-x+0.5, y+0.5, -z+0.5'
   '-x, -y, -z'
   'x, y, -z+0.5'
   '-x+0.5, y+0.5, z'
   'x+0.5, -y+0.5, z+0.5'
_cell_length_a        4.59000
_cell_length_b       10.00000
_cell_length_c        3.03000
_cell_angle_alpha    90.0000
_cell_angle_beta     90.0000
_cell_angle_gamma    90.0000
loop_
_atom_site_label
_atom_site_fract_x
_atom_site_fract_y
_atom_site_fract_z
_atom_site_occupancy
_atom_site_B_iso_or_equiv
fe      -0.045   0.146   0.250    1.00000    1.000
o      0.310   -0.200   0.250    1.00000    1.000
o      -0.200   -0.047   0.250    1.00000    1.000
_cell_measurement_wavelength    1.541874
_cell_measurement_radiation   'x-rays'
_exptl_crystal_density_diffrn    4.195000
loop_
_pd_peak_d_spacing
_pd_peak_intensity
     5.000000        124.16
     4.171554       1000.00
     3.381291        105.90
     2.697142        411.63
     2.591319        268.52
     2.528715         49.16
     2.500000        131.43
     2.451548        766.49
     2.295000         39.83
     2.256544        101.65
     2.236848         16.69
     2.195470        146.40
     2.085777         18.93
     2.014611         34.39
     1.928355         60.48
     1.890293          8.22
     1.833504          8.66
     1.799591        102.84
     1.777832         17.95
     1.718065        338.71
     1.690645        110.43
     1.666667         38.44
     1.603787         70.40
     1.568665        232.78
     1.566588          4.73
     1.515000        103.43
     1.512401          7.78
     1.507796         41.99
     1.476375         29.25
     1.463036         45.56
     1.460326        108.43
     1.449904          5.22
     1.423998         57.74
     1.391593          1.09
     1.390518         53.25
     1.382566          9.71
     1.365758         31.45
     1.364033         59.58
     1.353196         17.59
     1.349895          1.14
     1.348571         20.11
     1.320885         64.89
     1.317492         15.30
     1.305005          1.44
     1.295660         24.98
     1.264357         11.48
     1.263791         22.48
     1.254371          5.22
     1.250000          0.56
     1.246933         22.91
     1.243809          1.20
     1.232052          5.89
     1.225774          4.41
     1.215195          0.34
     1.212803          0.57
     1.206076          0.01
     1.198565         31.59
     1.182172          2.48
     1.167893          2.36
     1.155531         21.87
     1.147500          3.78
     1.140019         27.63
     1.128272         39.42
     1.127870         13.21
     1.127097          6.70
     1.125956          7.01
     1.121060         14.67
     1.120567          1.28
     1.118424          0.12
     1.097735         10.91
     1.089048          2.07
     1.085009          3.39
     1.079920          4.94
     1.070347          4.15
     1.068711         19.52
     1.066996          4.07
     1.056379         15.11
     1.052414         23.90
     1.049229          5.86
     1.044170          7.26
     1.042888          2.45
     1.032090         23.97
     1.024430         30.19
     1.021492         25.26
     1.017242         24.22
     1.013700         37.73
     1.007305         13.30
##############################################################################
###                            Comments                                    ###
##############################################################################
###   Diffraction pattern calculated by Match!. 
###   I/Ic calculated by Match!. 
###   Space group has been derived from given symmetry operations. 
##############################################################################


