##############################################################################
###               Crystal structure data exported by Match!                ###
##############################################################################
###                           Data published by:                           ###
###                                                                        ###
###               COD (Crystallography Open Database)
##############################################################################
data_9000806
_citation_journal_full    'American Mineralogist'
_citation_journal_volume  '66'
_citation_page_first  '324'
_citation_page_last   '333'
_citation_year  '1981'
_citation_title  'High-pressure crystal structure and compressibility of coesiteP = 38.7 kbar'
loop_
_publ_author_name
  'Levien L.'
  'Prewitt C. T.'
_chemical_formula_sum  'O2 Si'
_chemical_name_mineral  'Coesite'
_symmetry_space_group_name_H-M 'C 1 2/c 1'
_space_group_IT_number 15
_space_group_crystal_system 'monoclinic'
loop_
_symmetry_equiv_pos_as_xyz
   'x, y, z'
   'x+0.5, y+0.5, z'
   '-x, y, -z+0.5'
   '-x+0.5, y+0.5, -z+0.5'
   '-x, -y, -z'
   '-x+0.5, -y+0.5, -z'
   'x, -y, z+0.5'
   'x+0.5, -y+0.5, z+0.5'
_cell_length_a        7.02130
_cell_length_b       12.26000
_cell_length_c        7.12520
_cell_angle_alpha    90.0000
_cell_angle_beta    120.6600
_cell_angle_gamma    90.0000
loop_
_atom_site_label
_atom_site_fract_x
_atom_site_fract_y
_atom_site_fract_z
_atom_site_occupancy
_atom_site_B_iso_or_equiv
si      0.137   0.110   0.071    1.00000    0.400
si      0.508   0.157   0.544    1.00000    0.379
o      0.000   0.000   0.000    1.00000    0.900
o      0.500   0.110   0.750    1.00000    0.550
o      0.256   0.128   0.930    1.00000    0.619
o      0.317   0.101   0.326    1.00000    0.730
o      0.025   0.213   0.472    1.00000    0.790
_cell_measurement_wavelength    1.541874
_cell_measurement_radiation   'x-rays'
_cell_measurement_pressure       3870000.000000
_exptl_crystal_density_diffrn    3.026000
loop_
_pd_peak_d_spacing
_pd_peak_intensity
     6.130000         58.08
     5.493592          6.55
     5.417999          5.88
     4.334267         30.50
     3.421073         67.76
     3.402873        140.66
     3.384676        347.40
     3.366488        713.87
     3.072520        979.37
     3.065000       1000.00
     3.064579        801.92
     3.045968        828.70
     3.019891        181.10
     2.746796         12.92
     2.741344         63.15
     2.741118         92.30
     2.708999        115.26
     2.685428        108.70
     2.658783        287.10
     2.308668        120.89
     2.288208         67.28
     2.277393         11.67
     2.271914         29.14
     2.267199          3.80
     2.260820         83.84
     2.251096         59.08
     2.179399         26.22
     2.169936         42.61
     2.167133         22.78
     2.151156         50.63
     2.141840          6.34
     2.043333          0.05
     2.023556         23.46
     2.020342          8.16
     2.019830          3.25
     2.008982         35.44
     2.008419        109.52
     2.004540          5.60
     1.997753          0.43
     1.986652         33.94
     1.938450          0.02
     1.938236          0.42
     1.855762          8.94
     1.832409         15.14
     1.831197         97.46
     1.806000        112.79
     1.781292        162.23
     1.765893        115.95
     1.754973          2.34
     1.750533          0.05
     1.710537          0.11
     1.701436          7.61
     1.700084         57.33
     1.699994         36.65
     1.693516          8.62
     1.692338         86.53
     1.690853          8.00
     1.688712         15.67
     1.687190         28.03
     1.684351         15.91
     1.683244         30.31
     1.682131         51.10
     1.680215          0.64
     1.677613          4.48
     1.675316        130.50
     1.673629          1.18
     1.660586          8.15
     1.634760        172.73
     1.618728          6.82
     1.577398          2.35
     1.575245         12.93
     1.572002          0.99
     1.571760         42.53
     1.566365         36.59
     1.562659         45.28
     1.555974         37.73
     1.550685         15.70
     1.540089         47.18
     1.536766          0.00
     1.536260         39.32
     1.532500         47.85
     1.532289         13.44
     1.523425         10.50
     1.522984         22.40
     1.520079         72.22
     1.509945         29.75
     1.490176          0.03
     1.486731         28.52
     1.486551          3.26
     1.484088          4.53
     1.472062          1.84
     1.466123         14.93
     1.444756          0.12
     1.406362         12.93
     1.404466         22.67
     1.402554          1.43
     1.401039          0.89
     1.399821         10.35
     1.394970          7.15
     1.393480         15.33
     1.392163         26.75
     1.391194          0.91
     1.389027         15.34
     1.383675          1.77
     1.382830         17.87
     1.379932         37.12
     1.378498          0.53
     1.373398          5.88
     1.371380          2.33
     1.370672          8.05
     1.370559          1.97
     1.366603          4.70
     1.359391          1.82
     1.354500          0.03
     1.342714          0.76
     1.337713         16.42
     1.334165        132.18
     1.331333         87.25
     1.331163         49.80
     1.329937          1.50
     1.329392         54.43
     1.328843         70.51
     1.328172         40.49
     1.324325         12.99
     1.322768          2.31
     1.321388         31.28
     1.317414         55.69
     1.314907         43.05
     1.313408         75.26
     1.312107          3.70
     1.305115         69.39
     1.296914         11.67
     1.288803         64.07
     1.284502          4.79
     1.280665         24.70
     1.275129         45.38
     1.272914          8.53
     1.272379         92.02
     1.269894         54.58
     1.269512          5.90
     1.269001          4.20
     1.266530          9.53
     1.255831          0.10
     1.231351          0.26
     1.227923          2.84
     1.226029          4.68
     1.226000          6.69
     1.225939         56.13
     1.225892          7.76
     1.223503          0.01
     1.222879         17.24
     1.222498         12.90
     1.216587          5.88
     1.214493          1.07
     1.214360         41.89
     1.211006          0.01
     1.210911          0.68
     1.210344          9.05
     1.208400         42.53
     1.202186          0.37
     1.202135         19.05
     1.202033         10.32
     1.181996         35.72
     1.177309         29.26
     1.176937          3.00
     1.175876          1.79
     1.173185         28.77
     1.172996         29.64
     1.172109         46.15
     1.170748          0.27
     1.170531         32.77
     1.165872          0.63
     1.164567          5.86
     1.163151          0.36
     1.162069          0.19
     1.161770          0.03
     1.161729         15.01
     1.158410         29.71
     1.157425          1.14
     1.154334          4.57
     1.153494          0.02
     1.153068         14.90
     1.151604          0.11
     1.150135          2.04
     1.149237         17.57
     1.145341          0.76
     1.145015          1.78
     1.144104          0.19
     1.142958         12.58
     1.140358          4.44
     1.138696          1.88
     1.138291          0.96
     1.138177          5.00
     1.137119          0.33
     1.135957          5.81
     1.134291          1.17
     1.133599          1.56
     1.131682          0.83
     1.130410          1.33
     1.128225          4.98
     1.125548          2.36
     1.123594          2.71
     1.123246         41.21
     1.122163         11.18
     1.107739         12.59
     1.101789          0.28
     1.101001         19.05
     1.099590          0.18
     1.098718          7.12
     1.096654          3.31
     1.096040          0.21
     1.093053          2.71
     1.092845         12.70
     1.092624          2.85
     1.089699          0.03
     1.089600         18.01
     1.088634          1.78
     1.088181         12.53
     1.085146          7.00
     1.084968          0.40
     1.083600         14.95
     1.083567          0.02
     1.083091         15.41
     1.080622          0.23
     1.080418          4.68
     1.079573          2.98
     1.076817          3.22
     1.075578          0.27
     1.072612          0.93
     1.070920          0.24
     1.069168         22.35
     1.068780         23.89
     1.067833          3.30
     1.065830          0.93
     1.065448         21.29
     1.065311         12.65
     1.064784         20.86
     1.063706          3.51
     1.062253          6.97
     1.062029          7.66
     1.060872          0.35
     1.060282          0.51
     1.059684          0.01
     1.057102          0.68
     1.053980          1.14
     1.053758          2.33
     1.051248          6.67
     1.051180          3.45
     1.048529          2.05
     1.039511         23.04
     1.035678          0.00
     1.031244          7.22
     1.024173          0.01
     1.023485          0.13
     1.021667          0.07
     1.021526          3.45
     1.015323          4.46
     1.012633          0.06
     1.011778          0.11
     1.010731          6.02
     1.010585         17.56
     1.010171          0.08
     1.009915          3.72
     1.008386          0.76
     1.007762          5.49
     1.007631          0.03
     1.006699          4.68
     1.006630         19.09
##############################################################################
###                            Comments                                    ###
##############################################################################
###   Diffraction pattern calculated by Match!. 
###   I/Ic calculated by Match!. 
###   Space group has been derived from given symmetry operations. 
##############################################################################


