##############################################################################
###               Crystal structure data exported by Match!                ###
##############################################################################

data_2012182
_citation_journal_full    'Acta Crystallographica Section C'
_citation_journal_volume  '57(9)'
_citation_page_first  '1012'
_citation_page_last   '1013'
_citation_year  '2001'
_citation_title  '\b-CdC~2~O~4~'
loop_
_publ_author_name
  'Jeanneau Erwann'
  'Audebrand Nathalie'
  'Lou?r Daniel'
_chemical_formula_sum  'C2 Cd O4'
_chemical_name_common  'Anhydrous cadmium oxalate'
_symmetry_space_group_name_H-M 'P 1 21/n 1'
_space_group_IT_number 14
_space_group_crystal_system 'monoclinic'
loop_
_symmetry_equiv_pos_as_xyz
   'x, y, z'
   '-x+0.5, y+0.5, -z+0.5'
   '-x, -y, -z'
   'x+0.5, -y+0.5, z+0.5'
_cell_length_a        5.82600
_cell_length_b        5.25200
_cell_length_c        5.83200
_cell_angle_alpha    90.0000
_cell_angle_beta    113.8600
_cell_angle_gamma    90.0000
_cell_formula_units_Z 2
loop_
_atom_site_label
_atom_site_fract_x
_atom_site_fract_y
_atom_site_fract_z
_atom_site_occupancy
_atom_site_B_iso_or_equiv
cd      0.000   0.000   0.000    1.00000    1.039
o      -0.111   0.231   0.263    1.00000    1.271
o      -0.179   0.195   0.610    1.00000    1.176
c      -0.083   0.122   0.462    1.00000    0.963
_cell_measurement_wavelength    0.710806
_cell_measurement_radiation   'x-rays'
_cell_measurement_temperature    293.000000
_exptl_crystal_density_diffrn    4.078836
_exptl_crystal_colour            'colourless'
loop_
_pd_peak_d_spacing
_pd_peak_intensity
     4.884726        260.64
     4.884726        130.32
     3.742233        402.49
     3.740337       1000.00
     3.742233        201.24
     3.740337        500.00
     3.576822          6.72
     3.576822          3.36
     3.180670        128.52
     3.180670         64.26
     2.720644         59.02
     2.720644         29.51
     2.666789        123.43
     2.664045        131.50
     2.666789         61.71
     2.664045         65.75
     2.626000         34.01
     2.626000         17.01
     2.538737        263.16
     2.536961        231.19
     2.538737        131.58
     2.536961        115.59
     2.442363         88.72
     2.442363         44.36
     2.377816          5.31
     2.375870         71.25
     2.377816          2.65
     2.375870         35.62
     2.355928          0.00
     2.355455         17.18
     2.355928          0.00
     2.355455          8.59
     2.312954        241.38
     2.312954        120.69
     2.214611         18.12
     2.214611          9.06
     2.025018        135.17
     2.025018         67.59
     1.946560          0.37
     1.945759          2.32
     1.946560          0.19
     1.945759          1.16
     1.938196         94.44
     1.936090         44.89
     1.938196         47.22
     1.936090         22.45
     1.927975        135.83
     1.927197        107.22
     1.927975         67.92
     1.927197         53.61
     1.871117        144.83
     1.870168        115.05
     1.871117         72.41
     1.870168         57.53
     1.818328          1.15
     1.816588          0.28
     1.818328          0.57
     1.816588          0.14
     1.788411        118.39
     1.788411         59.20
     1.760294         73.41
     1.759307         92.44
     1.760294         36.71
     1.759307         46.22
     1.683991         64.25
     1.682437         56.45
     1.683991         32.12
     1.682437         28.22
     1.663355        105.71
     1.663188         37.87
     1.663355         52.85
     1.663188         18.94
     1.648021          0.32
     1.648021          0.16
     1.628242         25.66
     1.626955          0.19
     1.626488          5.88
     1.628242         12.83
     1.626955          0.10
     1.626488          2.94
     1.590335         33.24
     1.590335         16.62
     1.559434         21.07
     1.558337         60.75
     1.559434         10.53
     1.555217          3.11
     1.558337         30.38
     1.555217          1.56
     1.533698          1.11
     1.533698          0.55
     1.522362          0.41
     1.522084          0.13
     1.521723          0.18
     1.522362          0.20
     1.522084          0.06
     1.521723          0.09
     1.512709         12.20
     1.511707         49.25
     1.512709          6.10
     1.511707         24.63
     1.498755         56.85
     1.498390         41.58
     1.498755         28.42
     1.498390         20.79
     1.472195          0.30
     1.471155          1.08
     1.472195          0.15
     1.471155          0.54
     1.463494          0.72
     1.463040          1.73
     1.463494          0.36
     1.463040          0.87
     1.453615          3.15
     1.452726          0.40
     1.450031         28.13
     1.453615          1.58
     1.452726          0.20
     1.448708         40.48
     1.450031         14.07
     1.448708         20.24
     1.422887          3.77
     1.422887          1.89
     1.397737          0.02
     1.396552          0.03
     1.397737          0.01
     1.396552          0.01
     1.386678         37.76
     1.385232         33.08
     1.383818         30.92
     1.386678         18.88
     1.385232         16.54
     1.383818         15.46
     1.360322         29.09
     1.360322         14.54
     1.337434         20.76
     1.337174         27.04
     1.337434         10.38
     1.337174         13.52
     1.333394         17.11
     1.332023          6.83
     1.333394          8.56
     1.332023          3.41
     1.319781         36.16
     1.319198         23.45
     1.319781         18.08
     1.319198         11.73
     1.313000         16.28
     1.310782         38.25
     1.310129         12.27
     1.313000          8.14
     1.310782         19.12
     1.310129          6.14
     1.299162          0.44
     1.298527          0.16
     1.299162          0.22
     1.298527          0.08
     1.292393          0.08
     1.291144          0.04
     1.292393          0.04
     1.291144          0.02
     1.277491         22.05
     1.277114         20.12
     1.274936          0.03
     1.274861          1.42
     1.277491         11.03
     1.277114         10.06
     1.274936          0.02
     1.274861          0.71
     1.269369         23.25
     1.268481         10.33
     1.267991         24.71
     1.269369         11.63
     1.268481          5.17
     1.267991         12.36
     1.261068          0.27
     1.259980          0.09
     1.261068          0.13
     1.259980          0.05
     1.247411         20.88
     1.246779         32.61
     1.247411         10.44
     1.246779         16.30
     1.226885         18.04
     1.226551         18.29
     1.226885          9.02
     1.226551          9.14
     1.221181          9.68
     1.221181          4.84
     1.213657         27.14
     1.213657         13.57
     1.210125          0.17
     1.209676          0.30
     1.210125          0.09
     1.209676          0.15
     1.196119          0.04
     1.195933          0.01
     1.196119          0.02
     1.195933          0.00
     1.192274          1.46
     1.189451          1.17
     1.192274          0.73
     1.188908         17.12
     1.187935         26.80
     1.189451          0.58
     1.188908          8.56
     1.187935         13.40
     1.177964          9.01
     1.177727         15.50
     1.177148          0.69
     1.177964          4.50
     1.177727          7.75
     1.177148          0.34
     1.156477         11.68
     1.156397         17.15
     1.155558         20.80
     1.156477          5.84
     1.156397          8.58
     1.155558         10.40
     1.144604          1.82
     1.144170          0.27
     1.144604          0.91
     1.144170          0.13
     1.140472          2.65
     1.139614          6.32
     1.138646         10.35
     1.138343          4.24
     1.140472          1.32
     1.137525         15.73
     1.137316          0.28
     1.137063          7.30
     1.137050          0.56
     1.139614          3.16
     1.138646          5.18
     1.138343          2.12
     1.137525          7.86
     1.137316          0.14
     1.137063          3.65
     1.137050          0.28
     1.116719          0.07
     1.116114          0.44
     1.114498          1.08
     1.116719          0.04
     1.113697          0.17
     1.116114          0.22
     1.112511          1.48
     1.114498          0.54
     1.111316          0.80
     1.111054         13.76
     1.113697          0.09
     1.110310         15.61
     1.112511          0.74
     1.109174          0.15
     1.109026          0.55
     1.111316          0.40
     1.111054          6.88
     1.110310          7.81
     1.107305         16.43
     1.109174          0.07
     1.109026          0.27
     1.107305          8.21
     1.087050         21.20
     1.086678         10.51
     1.087050         10.60
     1.086678          5.25
     1.080490          0.01
     1.079805          0.00
     1.080490          0.01
     1.079805          0.00
     1.075742          7.87
     1.075426         16.13
     1.074259          0.38
     1.074035          0.82
     1.075742          3.94
     1.075426          8.07
     1.074259          0.19
     1.074035          0.41
     1.065968          0.07
     1.065048          0.53
     1.065968          0.03
     1.065048          0.26
     1.060755          0.33
     1.060223          4.13
     1.060064          0.17
     1.060755          0.17
     1.060223          2.06
     1.060064          0.09
     1.056187          0.69
     1.055803          0.01
     1.056187          0.35
     1.055803          0.00
     1.048676          9.47
     1.048301          9.39
     1.046077         15.78
     1.048676          4.73
     1.048301          4.70
     1.045415         13.14
     1.045371         10.76
     1.044433         13.41
     1.044338          9.24
     1.046077          7.89
     1.043444         12.02
     1.045415          6.57
     1.045371          5.38
     1.044433          6.71
     1.044338          4.62
     1.043444          6.01
     1.039259          0.86
     1.039259          0.43
     1.036341          7.10
     1.035857          3.68
     1.036341          3.55
     1.035857          1.84
     1.030604          8.93
     1.030564         11.15
     1.030604          4.47
     1.030564          5.57
     1.026925          0.23
     1.026925          0.12
     1.023626         13.62
     1.023432         11.11
     1.022086         13.19
     1.023626          6.81
     1.023432          5.55
     1.022086          6.60
     1.016736          0.23
     1.016279          0.01
     1.016736          0.11
     1.016279          0.00
     1.012509          8.41
     1.012509          4.20
     1.001581          0.00
     1.001581          0.00
     0.997417          0.02
     0.997417          0.01
     0.991575          7.47
     0.991293         10.65
     0.991080          0.58
     0.990763          0.36
     0.991575          3.74
     0.991293          5.33
     0.991080          0.29
     0.990763          0.18
     0.988289          0.34
     0.987614          3.73
     0.987509         10.61
     0.987416          0.00
     0.988289          0.17
     0.987614          1.86
     0.987509          5.30
     0.987416          0.00
     0.983119         11.47
     0.981606          6.99
     0.981092          4.83
     0.983119          5.74
     0.981606          3.49
     0.981092          2.41
     0.977320          0.00
     0.977185          0.02
     0.976945          6.11
     0.977320          0.00
     0.977185          0.01
     0.976945          3.06
     0.973280          5.45
     0.972943          5.38
     0.972880         10.60
     0.972143          4.13
     0.973280          2.72
     0.970679         12.18
     0.972943          2.69
     0.972880          5.30
     0.969984          5.69
     0.972143          2.07
     0.969523          0.02
     0.969098          6.77
     0.969029          0.06
     0.970679          6.09
     0.968045          2.93
     0.969984          2.85
     0.969523          0.01
     0.969098          3.39
     0.969029          0.03
     0.968045          1.46
     0.964944          0.23
     0.963988          4.57
     0.963598          6.97
     0.964944          0.11
     0.963988          2.28
     0.963598          3.48
     0.960470          0.56
     0.960470          0.28
     0.956666          0.14
     0.955905          0.63
     0.955588          0.13
     0.955083          0.14
     0.954334          0.07
     0.956666          0.07
     0.953579          0.04
     0.955905          0.32
     0.955588          0.07
     0.953010          0.22
     0.955083          0.07
     0.952008          0.91
     0.954334          0.03
     0.953579          0.02
     0.950717          8.67
     0.953010          0.11
     0.949878          8.15
     0.952008          0.45
     0.950717          4.34
     0.949878          4.07
     0.945792          0.00
     0.945578          0.01
     0.945792          0.00
     0.945578          0.01
     0.936950          6.58
     0.936861          7.88
     0.935558          6.60
     0.935084          5.24
     0.936950          3.29
     0.936861          3.94
     0.934181          4.12
     0.933591          1.53
     0.935558          3.30
     0.935084          2.62
     0.934181          2.06
     0.933591          0.77
     0.926014          6.96
     0.925009          7.01
     0.926014          3.48
     0.923500          0.06
     0.923272          0.00
     0.925009          3.51
     0.923500          0.03
     0.923272          0.00
     0.919745          0.21
     0.919181          0.06
     0.919745          0.11
     0.919181          0.03
     0.915634          3.25
     0.915619          8.96
     0.915480          5.79
     0.915634          1.62
     0.915619          4.48
     0.915480          2.89
     0.913119          5.98
     0.912871          7.06
     0.912336          4.04
     0.911677          6.32
     0.910934          4.57
     0.913119          2.99
     0.912871          3.53
     0.910251          5.67
     0.912336          2.02
     0.909788          0.00
     0.909652          0.03
     0.911677          3.16
     0.909164          3.67
     0.910934          2.29
     0.908294          5.05
     0.910251          2.83
     0.909788          0.00
     0.909652          0.01
     0.907173          0.05
     0.909164          1.83
     0.906881          0.01
     0.906443          0.11
     0.908294          2.52
     0.907173          0.03
     0.906881          0.01
     0.904351          7.43
     0.906443          0.06
     0.904110          3.23
     0.904351          3.72
     0.904110          1.62
     0.894205          3.27
     0.894205          1.64
     0.891809          4.53
     0.891799          0.00
     0.891629          6.24
     0.891491          0.08
     0.891809          2.27
     0.891799          0.00
     0.891629          3.12
     0.891491          0.04
     0.888930          1.47
     0.888015          2.07
     0.888930          0.73
     0.888015          1.03
     0.885636          0.28
     0.884757          0.11
     0.885636          0.14
     0.882667          0.09
     0.884757          0.05
     0.882667          0.05
     0.880147          4.05
     0.879904          0.10
     0.879653          6.22
     0.879534          0.15
     0.880147          2.03
     0.879904          0.05
     0.879653          3.11
     0.879534          0.08
     0.876476          0.25
     0.876464          0.43
     0.875587          0.02
     0.875333          1.97
     0.876476          0.13
     0.876464          0.22
     0.875587          0.01
     0.875333          0.99
     0.872008          0.02
     0.871504          0.08
     0.872008          0.01
     0.871504          0.04
     0.867648          4.27
     0.867388          5.14
     0.867648          2.13
     0.867388          2.57
     0.863778          0.00
     0.863755          0.08
     0.863654          4.70
     0.863165          3.30
     0.862792          0.14
     0.862606          0.10
     0.863778          0.00
     0.863755          0.04
     0.861609          5.19
     0.863654          2.35
     0.863165          1.65
     0.861018          4.23
     0.862792          0.07
     0.860648          3.11
     0.862606          0.05
     0.860100          3.98
     0.859548          3.47
     0.861609          2.59
     0.861018          2.11
     0.860648          1.55
     0.860100          1.99
     0.859548          1.74
     0.855573          0.13
     0.855414          0.09
     0.855573          0.07
     0.855414          0.05
     0.853102          0.01
     0.853102          0.00
     0.850658          0.08
     0.850433          0.00
     0.850391          0.04
     0.849899          0.27
     0.850658          0.04
     0.850433          0.00
     0.850391          0.02
     0.848146          2.61
     0.847862          0.03
     0.847815          2.86
     0.849899          0.13
     0.847156          0.12
     0.846246          2.47
     0.848146          1.30
     0.847862          0.02
     0.847815          1.43
     0.845654          2.81
     0.847156          0.06
     0.846246          1.24
     0.843957          2.81
     0.845654          1.41
     0.841996          5.37
     0.843957          1.41
     0.841218          3.35
     0.841996          2.68
     0.841218          1.67
     0.837993          0.00
     0.837929          0.02
     0.837993          0.00
     0.837929          0.01
     0.834171          0.05
     0.833939          0.01
     0.832844          1.72
     0.832122          3.48
     0.834171          0.03
     0.832008          2.23
     0.831976          2.63
     0.833939          0.01
     0.831677          4.30
     0.831594          2.91
     0.832844          0.86
     0.830619          0.00
     0.830184          0.02
     0.832122          1.74
     0.832008          1.11
     0.831976          1.32
     0.831677          2.15
     0.829562          0.18
     0.831594          1.46
     0.829376          0.02
     0.828683          2.66
     0.830619          0.00
     0.830184          0.01
     0.827963          2.81
     0.827923          0.04
     0.829562          0.09
     0.827409          0.06
     0.829376          0.01
     0.828683          1.33
     0.827963          1.41
     0.827923          0.02
     0.827409          0.03
     0.825127          0.04
     0.824876          1.90
     0.824801          0.00
     0.824181          0.00
     0.824010          2.77
     0.823776          0.19
     0.825127          0.02
     0.824876          0.95
     0.824801          0.00
     0.822566          0.00
     0.824181          0.00
     0.824010          1.38
     0.821761          0.00
     0.823776          0.10
     0.822566          0.00
     0.821761          0.00
     0.816198          2.50
     0.815313          2.16
     0.814382          2.42
     0.816198          1.25
     0.814121          1.46
     0.813699          3.26
     0.813478          4.09
     0.815313          1.08
     0.813244          4.48
     0.814382          1.21
     0.814121          0.73
     0.813699          1.63
     0.813478          2.04
     0.813244          2.24
     0.809711          2.74
     0.809077          2.38
     0.809711          1.37
     0.807285          1.58
     0.807189          3.05
     0.809077          1.19
     0.806372          0.13
     0.806315          0.00
     0.807285          0.79
     0.807189          1.52
     0.804513          0.03
     0.806372          0.07
     0.806315          0.00
     0.803899          2.72
     0.803767          2.01
     0.804513          0.02
     0.803899          1.36
     0.803767          1.00
     0.801040          1.23
     0.800148          2.75
     0.801040          0.62
     0.800148          1.37
     0.797750          2.76
     0.797603          3.64
     0.796338          0.03
     0.797750          1.38
     0.797603          1.82
     0.795168          0.68
     0.796338          0.01
     0.793874          2.05
     0.795168          0.34
     0.793150          2.88
     0.792654          0.09
     0.792605          0.00
     0.792563          0.34
     0.791957          0.02
     0.793874          1.03
     0.791882          0.02
     0.793150          1.44
     0.791020          0.01
     0.792654          0.05
     0.792605          0.00
     0.792563          0.17
     0.791957          0.01
     0.791882          0.01
     0.791020          0.00
     0.788908          0.99
     0.788482          1.85
     0.788145          0.00
     0.787348          0.01
     0.788908          0.50
     0.788482          0.93
     0.786510          0.03
     0.786208          0.17
     0.788145          0.00
     0.786187          2.87
     0.786068          2.85
     0.785923          3.03
     0.785894          0.02
     0.785874          1.66
     0.787348          0.00
     0.785309          0.27
     0.785152          0.02
     0.784977          1.61
     0.784697          2.17
     0.786510          0.02
     0.786208          0.09
     0.786187          1.44
     0.786068          1.42
     0.785923          1.52
     0.785894          0.01
     0.785874          0.83
     0.783787          3.30
     0.785309          0.13
     0.785152          0.01
     0.783094          2.21
     0.784977          0.81
     0.784697          1.08
     0.782729          3.05
     0.782299          0.00
     0.783787          1.65
     0.781728          0.01
     0.781715          2.69
     0.781300          1.66
     0.783094          1.10
     0.782729          1.53
     0.780540          1.93
     0.782299          0.00
     0.780178          3.90
     0.780156          0.06
     0.781728          0.01
     0.781715          1.35
     0.779744          0.07
     0.779717          2.15
     0.781300          0.83
     0.779168          3.34
     0.780540          0.96
     0.778460          0.03
     0.780178          1.95
     0.780156          0.03
     0.777999          0.01
     0.779744          0.03
     0.779717          1.07
     0.777608          2.41
     0.779168          1.67
     0.778460          0.01
     0.776353          0.00
     0.776082          0.01
     0.777999          0.00
     0.777608          1.21
     0.776353          0.00
     0.776082          0.01
     0.772628          0.01
     0.772361          0.11
     0.771965          0.00
     0.771566          0.01
     0.770985          1.76
     0.772628          0.00
     0.772361          0.06
##############################################################################
###                            Comments                                    ###
##############################################################################
###   Diffraction pattern calculated by Match!. 
###   I/Ic calculated by Match!. 
##############################################################################


