##############################################################################
###               Crystal structure data exported by Match!                ###
##############################################################################
###                           Data published by:                           ###
###                                                                        ###
###               COD (Crystallography Open Database)
##############################################################################
data_2310434
_citation_journal_full    'Acta Crystallographica (1,1948-23,1967)'
_citation_journal_volume  '14'
_citation_page_first  '1304'
_citation_page_last   '1304'
_citation_year  '1961'
_citation_title  'On the crystal structure of tetragonal (red) Pb O'
loop_
_publ_author_name
  'Leciejewicz J.'
_chemical_formula_sum  'O Pb'
_chemical_name_common  'Lead(II) oxide'
_symmetry_space_group_name_H-M 'P 4/n m m'
_space_group_IT_number 129
_space_group_crystal_system 'tetragonal'
loop_
_symmetry_equiv_pos_as_xyz
   'x, y, z'
   '-y+0.5, x, z'
   '-x+0.5, -y+0.5, z'
   'y, -x+0.5, z'
   'x+0.5, -y, -z'
   '-x, y+0.5, -z'
   'y+0.5, x+0.5, -z'
   '-y, -x, -z'
   '-x, -y, -z'
   'y+0.5, -x, -z'
   'x+0.5, y+0.5, -z'
   '-y, x+0.5, -z'
   '-x+0.5, y, z'
   'x, -y+0.5, z'
   '-y+0.5, -x+0.5, z'
   'y, x, z'
_cell_length_a        3.96000
_cell_length_b        3.96000
_cell_length_c        5.01000
_cell_angle_alpha    90.0000
_cell_angle_beta     90.0000
_cell_angle_gamma    90.0000
_cell_formula_units_Z 2
loop_
_atom_site_label
_atom_site_fract_x
_atom_site_fract_y
_atom_site_fract_z
_atom_site_occupancy
_atom_site_B_iso_or_equiv
pb      0.250   0.250   0.237    1.00000    1.000
o      0.750   0.250   0.000    1.00000    1.000
_cell_measurement_wavelength    1.541874
_cell_measurement_radiation   'x-rays'
_exptl_crystal_density_diffrn    9.435000
loop_
_pd_peak_d_spacing
_pd_peak_intensity
     5.010000         24.93
     3.106707       1000.00
     2.800143        318.81
     2.505000        113.76
     2.444276          0.00
     2.116996          8.84
     1.980000        155.49
     1.866959        248.90
     1.841410          4.90
     1.670000          1.18
     1.669718        301.23
     1.553353         99.71
     1.538765        106.34
     1.446079          4.75
     1.434287          7.98
     1.400071         44.62
     1.348409          1.34
     1.276565          1.97
     1.276439         55.92
     1.252500         13.18
     1.252262         46.87
     1.222138         41.78
     1.214995         88.54
     1.214886          0.07
     1.194191          4.56
     1.167789          1.08
     1.143335         30.61
     1.120100         77.01
     1.072904          1.17
     1.072830         62.62
     1.058498         30.20
     1.035569         27.15
     1.022597          5.78
##############################################################################
###                            Comments                                    ###
##############################################################################
###   Diffraction pattern calculated by Match!. 
###   I/Ic calculated by Match!. 
###   Space group has been derived from given symmetry operations. 
##############################################################################


