##############################################################################
###               Crystal structure data exported by Match!                ###
##############################################################################
###                           Data published by:                           ###
###                                                                        ###
###               COD (Crystallography Open Database)
##############################################################################
data_2219731
_citation_journal_full    'Acta Crystallographica Section E'
_citation_journal_volume  '64(10)'
_citation_page_first  'i69'
_citation_page_last   'i70'
_citation_year  '2008'
_citation_title  'A second polymorph with composition Co~3~(PO~4~)~2~&'
loop_
_publ_author_name
  'Lee Young Hoon'
  'Clegg Jack K.'
  'Lindoy Leonard F.'
  'Lu G. Q. Max'
  'Park Yu-Chul'
  'Kim Yang'
_chemical_formula_sum  'Co3 H2 O9 P2'
_chemical_name_common  'tricobalt(II) bis[orthophosphate(V)] monohydrate'
_symmetry_space_group_name_H-M 'P 1 21/c 1'
_space_group_IT_number 14
_space_group_crystal_system 'monoclinic'
loop_
_symmetry_equiv_pos_as_xyz
   'x, y, z'
   '-x, y+0.5, -z+0.5'
   '-x, -y, -z'
   'x, -y+0.5, z+0.5'
_cell_length_a        8.70380
_cell_length_b        4.86670
_cell_length_c       16.70500
_cell_angle_alpha    90.0000
_cell_angle_beta     95.6700
_cell_angle_gamma    90.0000
_cell_formula_units_Z 4
loop_
_atom_site_label
_atom_site_fract_x
_atom_site_fract_y
_atom_site_fract_z
_atom_site_occupancy
_atom_site_B_iso_or_equiv
co      0.329   0.203   0.943    1.00000    0.199
co      0.566   -0.203   0.846    1.00000    0.239
co      0.929   0.499   0.823    1.00000    0.642
p      0.682   0.293   0.945    1.00000    0.679
p      0.236   -0.512   0.781    1.00000    0.686
o      0.536   0.148   0.903    1.00000    0.900
o      0.362   0.398   1.048    1.00000    0.834
o      0.191   0.343   0.858    1.00000    0.939
o      0.284   -0.175   0.970    1.00000    0.955
o      0.745   -0.237   0.784    1.00000    0.915
o      0.815   0.255   0.895    1.00000    0.947
o      0.975   0.768   0.917    1.00000    1.080
o      0.906   0.170   0.744    1.00000    0.850
o      0.385   -0.351   0.791    1.00000    1.167
h      1.077   0.797   0.929    1.00000    1.737
h      0.933   0.936   0.909    1.00000    1.737
_cell_measurement_wavelength    1.541874
_cell_measurement_radiation   'x-rays'
_cell_measurement_temperature    150.000000
_exptl_crystal_density_diffrn    3.629000
_exptl_crystal_colour            'purple'
loop_
_pd_peak_d_spacing
_pd_peak_intensity
     8.661216        412.24
     8.311635         95.38
     6.316876        189.83
     5.721250        791.81
     4.670652         39.16
     4.330608         35.04
     4.242792        170.29
     4.199735          2.66
     4.159524         25.44
     4.155817         26.28
     4.064140        357.50
     4.006187         65.78
     3.900130          7.13
     3.855231          8.17
     3.706967         41.97
     3.693926        125.19
     3.656592        439.90
     3.610292         72.01
     3.450251         23.51
     3.292642       1000.00
     3.235201        264.04
     3.220504         66.97
     3.160345        836.79
     3.158438        171.14
     3.132560         68.52
     3.093022        396.25
     3.043424        691.13
     2.942352        271.29
     2.899557        253.20
     2.888225         32.85
     2.887072        135.45
     2.860625        162.68
     2.814790        889.75
     2.770545          0.09
     2.745226        276.34
     2.717899         38.33
     2.708182         42.46
     2.680666         68.03
     2.649395          4.12
     2.647364         16.85
     2.566276         43.34
     2.557518         10.82
     2.489092          0.92
     2.486853         83.82
     2.483029         24.19
     2.466144         64.21
     2.446092        241.95
     2.436595         69.71
     2.433350        161.74
     2.425851         53.49
     2.409190         86.56
     2.407726         10.94
     2.407691          0.71
     2.372931         17.40
     2.342651        297.68
     2.341386         55.12
     2.335326        196.27
     2.328343         11.69
     2.325554         11.84
     2.311211          4.96
     2.270701         24.60
     2.270011         78.12
     2.268376        175.49
     2.239231         13.57
     2.237537        199.65
     2.235688          1.84
     2.227982          0.02
     2.216066          2.42
     2.197321          7.26
     2.185557          0.34
     2.178720         22.79
     2.165304          1.54
     2.147774         21.05
     2.137348         12.29
     2.134223         20.42
     2.121396         20.39
     2.117236         15.59
     2.116352        111.87
     2.105625         17.24
     2.099867         19.89
     2.091656         26.12
     2.079762        101.61
     2.077909        122.57
     2.075784          2.42
     2.067442          6.43
     2.064483          0.11
     2.056009        160.07
     2.046619          0.39
     2.032070          0.11
     2.031575          0.87
     2.030773         23.17
     2.017811         72.86
     2.013980          8.27
     2.003094         29.84
     1.985612         79.55
     1.985554         30.46
     1.978329          7.99
     1.976755          2.22
     1.964932         20.52
     1.963597         87.33
     1.950065          4.52
     1.949906         19.94
     1.943982        148.10
     1.939560         19.80
     1.932503        198.66
     1.927616        102.33
     1.918797          3.85
     1.913017          8.45
     1.911009          7.80
     1.907083         14.35
     1.902858          9.95
     1.891350         16.72
     1.886585         47.55
     1.862227         18.46
     1.860620         22.80
     1.853483        135.97
     1.852330          2.34
     1.850333          4.52
     1.846963         28.62
     1.840840         27.24
     1.836194          1.00
     1.831442        103.31
     1.828937          1.26
     1.828296         46.38
     1.812921        116.51
     1.812065          6.44
     1.810155         11.72
     1.805146         10.95
     1.798736          9.03
     1.794244          2.60
     1.794040         29.46
     1.791528         62.34
     1.775620          0.07
     1.771843          5.82
     1.771536          8.21
     1.765761         47.69
     1.750347          5.95
     1.740011         95.77
     1.732243          6.55
     1.730893         30.84
     1.730294         19.44
     1.726846          0.27
     1.726791         26.86
     1.725126          3.75
     1.724332         30.72
     1.699542          3.86
     1.692472         29.70
     1.690476          7.93
     1.683476        114.46
     1.669585          7.47
     1.664677         19.76
     1.664292         11.35
     1.663300         94.36
     1.663232          3.73
     1.662327         46.22
     1.659243          1.02
     1.658140         36.23
     1.657566         63.51
     1.647696         14.84
     1.646321          7.11
     1.645894         13.41
     1.639042          0.10
     1.636431          8.39
     1.631948          4.48
     1.630318         98.29
     1.629734          9.93
     1.621574          0.00
     1.621543          2.72
     1.617600          2.14
     1.614564         57.36
     1.612660        165.36
     1.610252         74.73
     1.609637          0.72
     1.606514          1.08
     1.605910          3.67
     1.603469         61.71
     1.598662         20.71
     1.594506          1.99
     1.592321         32.98
     1.592259        143.77
     1.592191          0.04
     1.589972          0.21
     1.584567          8.15
     1.584484          7.85
     1.581307          4.49
     1.580172          0.19
     1.579219          0.13
     1.575555          1.99
     1.573916          0.35
     1.573858          9.01
     1.573091          5.13
     1.571248          0.19
     1.569541         35.60
     1.566280         96.17
     1.560707          2.05
     1.556884         38.70
     1.555357          1.36
     1.546511          9.23
     1.546233         18.28
     1.545596          0.00
     1.545385         25.18
     1.545349          3.59
     1.539786         21.49
     1.538709          0.86
     1.534293         94.70
     1.530805         23.25
     1.527410         16.31
     1.525027         88.03
     1.524971          5.76
     1.522937         35.31
     1.522846          4.67
     1.522085         28.61
     1.521712          0.03
     1.519146         12.22
     1.517616         16.39
     1.512100         20.66
     1.511181         49.55
     1.508112          0.33
     1.506388         44.68
     1.503635         11.25
     1.503034         11.64
     1.502114         10.66
     1.501022          1.27
     1.498738         27.85
     1.497831         15.91
     1.485313         23.86
     1.479717         14.85
     1.478204          6.40
     1.473091          0.04
     1.471210          8.17
     1.471176         32.56
     1.469654          0.09
     1.467125          0.10
     1.457934         11.71
     1.456703         43.66
     1.452304         53.16
     1.449779         78.36
     1.448014         21.34
     1.446544         46.31
     1.445890          1.54
     1.444112          0.02
     1.443536          3.68
     1.443228          1.41
     1.443024          1.27
     1.439029         49.18
     1.436104          4.50
     1.432193          0.32
     1.431949         27.76
     1.430313         10.65
     1.427658          9.32
     1.427619        128.68
     1.425123          4.37
     1.421336          0.02
     1.415770          7.69
     1.415311          0.24
     1.414969        106.94
     1.414264          7.58
     1.414087          0.75
     1.413844          6.74
     1.411191          0.08
     1.411122         21.76
     1.410137          0.57
     1.409672         11.49
     1.407600          2.14
     1.407518          0.45
     1.407395          3.82
     1.405519          3.66
     1.403448         47.03
     1.402309         21.40
     1.400325         43.00
     1.400199          9.90
     1.399912         12.09
     1.399132         67.75
     1.396690          0.49
     1.394648          9.88
     1.392973          7.41
     1.390098          0.39
     1.389463         20.47
     1.386589         86.43
     1.386508          0.05
     1.386389          2.57
     1.385332         24.32
     1.385272          0.00
     1.383939          0.00
     1.383198          8.89
     1.382731          0.35
     1.373631         12.63
     1.373161         34.30
     1.373122         51.93
     1.372613         48.67
     1.372274          6.24
     1.371236         14.14
     1.370253          9.51
     1.368493          4.49
     1.363980         21.67
     1.360784          7.81
     1.359071          0.08
     1.358949         70.31
     1.354713          5.04
     1.354661          0.14
     1.354091          7.30
     1.352178         35.20
     1.351996         11.17
     1.351943          0.11
     1.347286          0.03
     1.345725          0.00
     1.344666         17.76
     1.344250         64.14
     1.342576          4.03
     1.341950          2.67
     1.340333         10.22
     1.339523          0.32
     1.338913          0.04
     1.338334          3.19
     1.336076          0.55
     1.335396         15.71
     1.335071          9.29
     1.333342         22.08
     1.332349          0.62
     1.332016          9.19
     1.330087          0.84
     1.324708          4.07
     1.324697         13.61
     1.323682          1.98
     1.322894         24.27
     1.319525         19.67
     1.313758          3.74
     1.312997          0.69
     1.312781          1.06
     1.308879         10.77
     1.304663         22.90
     1.300513         29.29
     1.300341          0.08
     1.300324         50.95
     1.300043          5.14
     1.298449          0.20
     1.298289          0.17
     1.294480          0.36
     1.293237          4.95
     1.293110          6.31
     1.290095         10.43
     1.288436          0.55
     1.287795          0.20
     1.285653          7.62
     1.285077         20.53
     1.283780          0.57
     1.283691          0.73
     1.283138          5.32
     1.281023         37.15
     1.280823          6.20
     1.279298          2.14
     1.278759          3.83
     1.278698          0.00
     1.277280          0.36
     1.276247          0.08
     1.271302          7.93
     1.270988          1.18
     1.270247          0.20
     1.264013          1.07
     1.263375          4.70
     1.262967          0.16
     1.260663          0.17
     1.260033          0.20
     1.259991         15.86
     1.259817          9.54
     1.258452         14.56
     1.256894         11.35
     1.256002         11.10
     1.254725          0.70
     1.254018          4.90
     1.248250         12.80
     1.247745         25.29
     1.247121          3.04
     1.245955          0.03
     1.244797          0.55
     1.244546          1.93
     1.243427          0.13
     1.241829          3.18
     1.241814          8.48
     1.241515         25.72
     1.241024          2.64
     1.240738         31.12
     1.237317          1.99
     1.236778          1.12
     1.236736          1.04
     1.235656          2.17
     1.234381          0.38
     1.234056          5.58
     1.233072         10.50
     1.231309         25.35
     1.230326          3.74
     1.229071          8.83
     1.223046          5.13
     1.222843          6.89
     1.220383          1.07
     1.219616          8.27
     1.219275          6.33
     1.218864         14.12
     1.218845          3.78
     1.218431          8.07
     1.218298          8.95
     1.217979          0.03
     1.216675         19.41
     1.213703          0.06
     1.213429          1.09
     1.212926         11.31
     1.211391          5.41
     1.208267          0.98
     1.206610          7.35
     1.206593          2.56
     1.206592          0.04
     1.205745          5.81
     1.204846          4.54
     1.204595         16.32
     1.204364          0.51
     1.203863          0.99
     1.203846          3.98
     1.203617          0.03
     1.203431          1.49
     1.203321         19.71
     1.203274          8.72
     1.202886         26.93
     1.202193          6.81
     1.200504          3.12
     1.199167          3.72
     1.196874          0.00
     1.196399          5.50
     1.196256          0.01
     1.195948          7.62
     1.194716          0.10
     1.193751         15.42
     1.193696         16.89
     1.192332          3.26
     1.190096          1.00
     1.190063          6.73
     1.190048         13.01
     1.188365          0.65
     1.187924         12.95
     1.187376          0.43
     1.186776          3.09
     1.186465          0.09
     1.186163          0.82
     1.185784          8.01
     1.184074          3.56
     1.183452          5.76
     1.182722          0.97
     1.180709          0.25
     1.178680          0.05
     1.178306          0.07
     1.175469         20.55
     1.175103         13.48
     1.174682          0.02
     1.174251         12.65
     1.173990          0.89
     1.173773          0.13
     1.172420          3.71
     1.171326          0.12
     1.171135         13.25
     1.170693          1.73
     1.170624         26.93
     1.170120          9.37
     1.168675          6.59
     1.168244         34.67
     1.167663          0.35
     1.167608          1.46
     1.166245          7.33
     1.164171          3.47
     1.164149          4.29
     1.162777          1.33
     1.161591          0.00
     1.161471          3.37
     1.161339          0.74
     1.161316          0.23
     1.161039         12.83
     1.161008          0.30
     1.160278         23.59
     1.159579          6.62
     1.158082         28.07
     1.155605          3.83
     1.155073          0.02
     1.153824          4.52
     1.153540         33.41
     1.152964          1.09
     1.152248          0.02
     1.151809          0.09
     1.150084          3.78
     1.149735          0.10
     1.149502         18.10
     1.149290          1.31
     1.147509          5.21
     1.147334          0.71
     1.146655         17.43
     1.144250         19.01
     1.143693          3.00
     1.142570         14.74
     1.142276          0.08
     1.142275          8.23
     1.141277          7.79
     1.141055          0.56
##############################################################################
###                            Comments                                    ###
##############################################################################
###   Diffraction pattern calculated by Match!. 
###   I/Ic calculated by Match!. 
##############################################################################


