##############################################################################
###               Crystal structure data exported by Match!                ###
##############################################################################
###                           Data published by:                           ###
###                                                                        ###
###               COD (Crystallography Open Database)
##############################################################################
data_9001302
_citation_journal_full    'American Mineralogist'
_citation_journal_volume  '75'
_citation_page_first  '1249'
_citation_page_last   '1252'
_citation_year  '1990'
_citation_title  'Rietveld refinement of the high-pressure polymorph of Mn3O4'
loop_
_publ_author_name
  'Ross C. R.'
  'Rubie D. C.'
  'Paris E.'
_chemical_formula_sum  'Mn3 O4'
_chemical_name_common  'Manganese(II,III) oxide'
_symmetry_space_group_name_H-M 'P m a b'
_space_group_IT_number 57
_space_group_crystal_system 'orthorhombic'
loop_
_symmetry_equiv_pos_as_xyz
   'x, y, z'
   '-x, -y+0.5, z'
   'x+0.5, -y, -z'
   '-x+0.5, y+0.5, -z'
   '-x, -y, -z'
   'x, y+0.5, -z'
   '-x+0.5, y, z'
   'x+0.5, -y+0.5, z'
_cell_length_a        9.55640
_cell_length_b        9.79960
_cell_length_c        3.02400
_cell_angle_alpha    90.0000
_cell_angle_beta     90.0000
_cell_angle_gamma    90.0000
loop_
_atom_site_label
_atom_site_fract_x
_atom_site_fract_y
_atom_site_fract_z
_atom_site_occupancy
_atom_site_B_iso_or_equiv
mn      0.750   0.146   0.684    1.00000    0.550
mn      0.070   0.115   0.203    1.00000    0.250
o      0.000   0.250   0.620    1.00000    0.180
o      0.250   0.200   0.190    1.00000    0.180
o      0.111   0.969   0.796    1.00000    0.180
_cell_measurement_wavelength    1.541874
_cell_measurement_radiation   'x-rays'
_exptl_crystal_density_diffrn    5.367000
loop_
_pd_peak_d_spacing
_pd_peak_intensity
     4.899800          0.05
     4.778200         58.95
     4.360098          4.58
     3.420880         69.49
     3.024000          6.81
     2.889550        102.56
     2.765878        274.88
     2.670686       1000.00
     2.573364         30.71
     2.555263         30.77
     2.484849        108.36
     2.472588        298.92
     2.449900        241.47
     2.389100         25.47
     2.373157          3.46
     2.265676         13.82
     2.219085        229.68
     2.180049          1.27
     2.161572        539.08
     2.147428        141.13
     2.140209         14.42
     2.012627        405.66
     2.001776          0.52
     1.941985          0.29
     1.903587          4.18
     1.874641         28.04
     1.866909          9.14
     1.841254         92.60
     1.820825         13.07
     1.780609         35.14
     1.768416         68.14
     1.750870          0.42
     1.710440          9.68
     1.644693          2.19
     1.634051          7.38
     1.633267          0.02
     1.625915         43.21
     1.620863         36.91
     1.609923          0.78
     1.594112        219.19
     1.592733        125.50
     1.555145        122.78
     1.545475         55.41
     1.534372         41.47
     1.514717          1.48
     1.512000         99.52
     1.506942         14.40
     1.494318         69.08
     1.488787          1.50
     1.476377          1.64
     1.461399        166.68
     1.453366        192.01
     1.448179        119.94
     1.444775          1.72
     1.441549          1.65
     1.437059          1.02
     1.428542          0.20
     1.421081          8.91
     1.409217          3.65
     1.394868         23.23
     1.382939          9.34
     1.376167          2.77
     1.372135         15.71
     1.358206          0.42
     1.354717          7.75
     1.354317          0.01
     1.352859         27.92
     1.348751          0.47
     1.348310          3.34
     1.335343         90.47
     1.318834          1.16
     1.315767        108.58
     1.315107         17.05
     1.309931          5.14
     1.293941         19.91
     1.286682         42.76
     1.277631          0.24
     1.275176          0.70
     1.270411         17.33
     1.266909         13.91
     1.260196         38.93
     1.259332         18.28
     1.246662         32.05
     1.242425          5.30
     1.241664          2.48
     1.236294          9.72
     1.234366          0.05
     1.231449          0.16
     1.227757         18.16
     1.224950         26.59
     1.221546          0.15
     1.215009         28.51
     1.205998          2.04
     1.197157          5.38
     1.194550          0.06
     1.193034          0.00
     1.192542          0.08
     1.189856          2.28
     1.187872          1.34
     1.186578         10.60
     1.180029          0.52
     1.177221          2.72
     1.162775         26.94
     1.161263          6.94
     1.160558          2.85
     1.152537         12.85
     1.148608          5.59
     1.144161          3.31
     1.143329          1.26
     1.140293          1.32
     1.135339          0.06
     1.132838          3.75
     1.127411          0.09
     1.121686          0.10
     1.120631         26.50
     1.114636          0.10
     1.111008          6.03
     1.109542          0.01
     1.109392          2.01
     1.104586          2.46
     1.103936         45.27
     1.102139          1.08
     1.096576         42.96
     1.090024          0.22
     1.089774         17.83
     1.083504          0.63
     1.080786         10.43
     1.073714         16.00
     1.070302          4.17
     1.070105          0.03
     1.069444          5.88
     1.067353          4.87
     1.066958          4.28
     1.058009         19.46
     1.051834         32.88
     1.050463          0.00
     1.047800         71.95
     1.047467          2.39
     1.039563         19.52
     1.037735         29.58
     1.031316         15.60
     1.027242          4.33
     1.025441          3.03
     1.024458          0.64
     1.021359          5.51
     1.018622          3.75
     1.014564          3.28
     1.011826          7.10
     1.008000          3.24
     1.007904          5.14
##############################################################################
###                            Comments                                    ###
##############################################################################
###   Diffraction pattern calculated by Match!. 
###   I/Ic calculated by Match!. 
###   Space group has been derived from given symmetry operations. 
##############################################################################


