##############################################################################
###               Crystal structure data exported by Match!                ###
##############################################################################
###                           Data published by:                           ###
###                                                                        ###
###               COD (Crystallography Open Database)
##############################################################################
data_1528427
_citation_journal_full    'Crystallography Reports'
_citation_journal_volume  '53(7)'
_citation_page_first  '1112'
_citation_page_last   '1118'
_citation_year  '2008'
_citation_title  'Transformation of the corundum structure upon high-temperature reduction'
loop_
_publ_author_name
  'Dan?ko A.J.'
  'Rom M.A.'
  'Kaltaev K.S.'
  'Sidelnikova N.S.'
  'Budnikov A.T.'
  'Nizhankovskiy S.V.'
  'Grin? Yu.'
_chemical_formula_sum  'Al2 O3'
_chemical_name_common  'Alumina'
_symmetry_space_group_name_H-M 'P 63/m m c'
_space_group_IT_number 194
_space_group_crystal_system 'hexagonal'
loop_
_symmetry_equiv_pos_as_xyz
   'x, y, z'
   'x-y, x, z+0.5'
   '-y, x-y, z'
   '-x, -y, z+0.5'
   '-x+y, -x, z'
   'y, -x+y, z+0.5'
   'x-y, -y, -z'
   '-x, -x+y, -z'
   'y, x, -z'
   '-y, -x, -z+0.5'
   '-x+y, y, -z+0.5'
   'x, x-y, -z+0.5'
   '-x, -y, -z'
   '-x+y, -x, -z+0.5'
   'y, -x+y, -z'
   'x, y, -z+0.5'
   'x-y, x, -z'
   '-y, x-y, -z+0.5'
   '-x+y, y, z'
   'x, x-y, z'
   '-y, -x, z'
   'y, x, z+0.5'
   'x-y, -y, z+0.5'
   '-x, -x+y, z+0.5'
_cell_length_a        3.11200
_cell_length_b        3.11200
_cell_length_c        4.98800
_cell_angle_alpha    90.0000
_cell_angle_beta     90.0000
_cell_angle_gamma   120.0000
_cell_formula_units_Z 1
loop_
_atom_site_label
_atom_site_fract_x
_atom_site_fract_y
_atom_site_fract_z
_atom_site_occupancy
_atom_site_B_iso_or_equiv
al      0.000   0.000   0.250    1.00000    1.000
o      0.333   0.667   0.250    1.00000    1.000
o      0.000   0.000   0.000    0.50000    1.000
_cell_measurement_wavelength    1.541874
_cell_measurement_radiation   'x-rays'
_exptl_crystal_density_diffrn    4.046000
loop_
_pd_peak_d_spacing
_pd_peak_intensity
     2.695071       1000.00
     2.494000        448.84
     2.371099        369.02
     1.830485        117.91
     1.556000        479.98
     1.415048         36.55
     1.347536         88.84
     1.320139        246.90
     1.300899         23.82
     1.247000         60.18
     1.185550         34.18
     1.131726         89.36
     1.046882          8.83
     1.018641         63.31
##############################################################################
###                            Comments                                    ###
##############################################################################
###   Diffraction pattern calculated by Match!. 
###   I/Ic calculated by Match!. 
###   Space group has been derived from given symmetry operations. 
##############################################################################


