##############################################################################
###               Crystal structure data exported by Match!                ###
##############################################################################
###                           Data published by:                           ###
###                                                                        ###
###               COD (Crystallography Open Database)
##############################################################################
data_1542231
_citation_journal_full    'Materials Research Bulletin'
_citation_journal_volume  '19'
_citation_page_first  '549'
_citation_page_last   '554'
_citation_year  '1984'
_citation_title  'The crystal structures of Pb O Pb X O4 (X = S, Cr, Mo) at 5 K by neutronpowder profile refinement'
loop_
_publ_author_name
  'Mentzen B.F.'
  'Latrach A.'
  'Bouix J.'
  'Hewat A.W.'
_chemical_formula_sum  'Cr O5 Pb2'
_chemical_name_common  'Lead Chromate Oxide'
_symmetry_space_group_name_H-M 'C 1 2/m 1'
_space_group_IT_number 12
_space_group_crystal_system 'monoclinic'
loop_
_symmetry_equiv_pos_as_xyz
   'x, y, z'
   'x+0.5, y+0.5, z'
   '-x, y, -z'
   '-x+0.5, y+0.5, -z'
   '-x, -y, -z'
   '-x+0.5, -y+0.5, -z'
   'x, -y, z'
   'x+0.5, -y+0.5, z'
_cell_length_a       14.00760
_cell_length_b        5.64450
_cell_length_c        7.10280
_cell_angle_alpha    90.0000
_cell_angle_beta    115.3300
_cell_angle_gamma    90.0000
_cell_formula_units_Z 4
loop_
_atom_site_label
_atom_site_fract_x
_atom_site_fract_y
_atom_site_fract_z
_atom_site_occupancy
_atom_site_B_iso_or_equiv
o      0.352   0.737   0.224    1.00000    1.000
pb      0.144   0.000   0.115    1.00000    1.000
pb      0.020   0.500   0.269    1.00000    1.000
cr      0.330   0.500   0.339    1.00000    1.000
o      0.000   0.254   0.000    1.00000    1.000
o      0.091   0.000   0.407    1.00000    1.000
o      0.204   0.500   0.299    1.00000    1.000
_cell_measurement_wavelength    1.541874
_cell_measurement_radiation   'x-rays'
_exptl_crystal_density_diffrn    7.149000
loop_
_pd_peak_d_spacing
_pd_peak_intensity
     6.419927        131.90
     6.330445        173.88
     5.958922        100.07
     5.155371         20.83
     4.412486        148.03
     3.772365         88.48
     3.716082         34.00
     3.537832          8.87
     3.530819         46.67
     3.492824          3.33
     3.379993       1000.00
     3.209964        118.36
     3.165223          4.49
     2.979461        191.71
     2.966666        693.24
     2.869812        229.15
     2.822250        345.22
     2.640957         24.99
     2.583621          9.59
     2.577685         30.40
     2.550640         44.53
     2.534039          0.00
     2.508057        122.36
     2.468475        139.00
     2.453036         54.46
     2.362763          8.30
     2.356004         53.75
     2.320681         22.81
     2.310348         81.24
     2.283048          0.16
     2.262771        107.90
     2.259818        114.82
     2.206243          0.64
     2.195200         15.61
     2.176212         34.70
     2.139976          0.57
     2.119526         52.95
     2.110961          4.15
     2.110148         94.87
     2.106492          0.55
     2.048956        216.24
     2.009078         11.16
     2.008839          5.54
     1.986307         41.03
     1.945347         47.67
     1.886183          0.00
     1.867482         52.02
     1.864779         83.64
     1.864554          1.76
     1.861062          2.16
     1.858041        165.03
     1.851430         41.15
     1.818312         17.12
     1.808630         17.55
     1.806336          1.92
     1.792502          4.80
     1.790268          0.21
     1.774989          0.16
     1.768916         59.66
     1.765409         95.31
     1.758149          2.83
     1.746412          4.24
     1.743577         33.84
     1.737333          6.02
     1.729381          0.09
     1.722430          7.43
     1.718457        125.26
     1.716749         38.61
     1.705203          0.31
     1.691732          0.77
     1.689996         57.24
     1.666354          0.46
     1.655852        116.65
     1.655278          1.80
     1.655193         27.05
     1.638428         39.91
     1.624339         34.26
     1.614330         71.47
     1.604982          0.08
     1.601963         73.02
     1.592179          4.75
     1.582611         12.12
     1.579874         13.34
     1.568197          2.40
     1.567818          0.04
     1.561606         29.42
     1.524592          1.82
     1.524077         84.13
     1.521401          1.28
     1.516162         63.57
     1.511764          0.28
     1.510233         18.55
     1.500313         52.29
     1.499900         25.15
     1.498841         75.05
     1.494107          0.11
     1.489731          3.53
     1.485077          5.21
     1.483333         27.50
     1.470829          8.61
     1.466708         49.02
     1.464560          1.29
     1.461861         38.69
     1.457366         30.85
     1.450183          0.85
     1.434906          0.00
     1.427816          6.28
     1.420133          4.06
     1.417942          6.06
     1.415855          2.56
     1.415771          1.29
     1.411125         48.52
     1.403399          1.93
     1.399804          0.52
     1.395158          2.27
     1.393010          0.01
     1.393006         16.17
     1.380389          9.13
     1.378490          0.61
     1.378308          0.13
     1.378224          3.77
     1.377321          5.22
     1.373148          3.48
     1.372651          1.81
     1.365648         10.10
     1.365011         11.40
     1.363564         17.80
     1.362511         25.28
     1.362423          0.39
     1.357276          2.81
     1.353424          0.03
     1.332011          0.21
     1.324473         20.52
     1.321682          8.97
     1.320478          0.53
     1.318546         14.94
     1.317455          1.00
     1.311373          0.32
     1.310708          0.43
     1.308381          0.83
     1.307730          0.30
     1.306929          0.05
     1.303921          2.25
     1.300833         20.33
     1.300173          0.61
     1.291811         11.17
     1.290450          0.33
     1.288843          0.28
     1.288783          0.74
     1.283985         10.62
     1.275320         25.30
     1.274010          9.77
     1.268582          4.59
     1.267019          9.13
     1.266089          2.18
     1.257455         11.49
     1.256611          7.25
     1.255093         27.90
     1.254029          3.25
     1.249255         29.07
     1.249136          1.26
     1.238742          1.18
     1.238694          5.16
     1.238635          0.48
     1.238503          0.11
     1.234943          0.27
     1.234238         11.08
     1.233533         12.13
     1.226518          5.71
     1.225078         28.19
     1.223177         13.12
     1.222109          3.55
     1.211247         36.58
     1.210591          9.72
     1.207262         26.50
     1.205718          3.74
     1.200345          0.00
     1.199783         32.64
     1.199215         22.47
     1.197945          0.77
     1.197370         22.51
     1.191784          4.64
     1.186540          0.60
     1.185745          0.02
     1.181381         29.80
     1.180719          0.47
     1.179303         17.66
     1.179277          0.31
     1.178057          0.04
     1.178002          0.00
     1.176940         14.01
     1.173007         21.72
     1.168719         21.31
     1.165004          0.03
     1.164275          8.63
     1.160340          5.62
     1.158575         35.55
     1.155174          2.26
     1.152114         15.64
     1.150376         11.56
     1.148605         13.30
     1.141524         16.10
     1.140800          2.95
     1.138495          3.43
     1.138064         12.71
     1.134825         13.50
     1.131385          0.10
     1.130949          0.88
     1.130829         15.65
     1.129909          0.05
     1.127881          0.21
     1.127782          4.87
     1.127023          5.53
     1.126664          5.31
     1.124883          9.72
     1.124439          0.34
     1.120654          0.17
     1.120122          0.02
     1.114800          2.90
     1.112023          0.49
     1.108508          0.11
     1.108243          0.10
     1.107893          0.07
     1.103122         22.12
     1.102144          2.76
     1.100496          0.67
     1.100108          8.13
     1.097907          8.06
     1.097600          1.29
     1.096895         12.71
     1.095932          0.32
     1.095335          1.65
     1.090558         26.12
     1.090121         16.03
     1.089993          0.16
     1.089370          0.35
     1.088106          1.03
     1.087104          0.60
     1.085981          0.03
     1.083374         20.87
     1.082644          0.50
     1.076872          0.13
     1.076863          0.49
     1.076288         12.07
     1.074936          0.03
     1.074790          2.01
     1.074022         22.77
     1.073866          0.78
     1.073177         10.96
     1.071946          0.10
     1.070104          7.24
     1.069988          2.70
     1.069224          9.73
     1.066659         27.05
     1.059763          0.06
     1.058238         23.41
     1.057931          0.01
     1.056052          1.08
     1.055480         19.75
     1.055074          0.06
     1.053246          5.82
     1.052468          0.78
     1.050146          0.17
     1.050134          0.12
     1.049267          7.30
     1.048851          0.01
     1.048850          0.92
     1.046985          6.93
     1.044319          0.10
     1.042209          1.96
     1.041547          0.03
     1.039026          1.15
     1.038927         10.94
     1.036155          0.15
     1.035609          0.37
     1.031074          5.07
     1.028259         20.76
     1.027768         13.64
     1.027101          0.42
     1.025898          0.10
     1.024478          1.77
     1.019380          0.04
     1.018269          2.87
     1.018025         15.75
     1.014657          1.72
     1.013736          6.52
     1.013131          7.24
     1.011342          0.25
##############################################################################
###                            Comments                                    ###
##############################################################################
###   Diffraction pattern calculated by Match!. 
###   I/Ic calculated by Match!. 
###   Space group has been derived from given symmetry operations. 
##############################################################################


