##############################################################################
###               Crystal structure data exported by Match!                ###
##############################################################################
###                           Data published by:                           ###
###                                                                        ###
###               COD (Crystallography Open Database)
##############################################################################
data_9000804
_citation_journal_full    'American Mineralogist'
_citation_journal_volume  '66'
_citation_page_first  '324'
_citation_page_last   '333'
_citation_year  '1981'
_citation_title  'High-pressure crystal structure and compressibility of coesiteP = 21.8 kbar'
loop_
_publ_author_name
  'Levien L.'
  'Prewitt C. T.'
_chemical_formula_sum  'O2 Si'
_chemical_name_mineral  'Coesite'
_symmetry_space_group_name_H-M 'C 1 2/c 1'
_space_group_IT_number 15
_space_group_crystal_system 'monoclinic'
loop_
_symmetry_equiv_pos_as_xyz
   'x, y, z'
   'x+0.5, y+0.5, z'
   '-x, y, -z+0.5'
   '-x+0.5, y+0.5, -z+0.5'
   '-x, -y, -z'
   '-x+0.5, -y+0.5, -z'
   'x, -y, z+0.5'
   'x+0.5, -y+0.5, z+0.5'
_cell_length_a        7.06920
_cell_length_b       12.30600
_cell_length_c        7.14620
_cell_angle_alpha    90.0000
_cell_angle_beta    120.5300
_cell_angle_gamma    90.0000
loop_
_atom_site_label
_atom_site_fract_x
_atom_site_fract_y
_atom_site_fract_z
_atom_site_occupancy
_atom_site_B_iso_or_equiv
si      0.139   0.109   0.071    1.00000    0.420
si      0.508   0.158   0.543    1.00000    0.409
o      0.000   0.000   0.000    1.00000    0.900
o      0.500   0.112   0.750    1.00000    0.640
o      0.261   0.126   0.935    1.00000    0.660
o      0.314   0.102   0.327    1.00000    0.760
o      0.022   0.212   0.474    1.00000    0.820
_cell_measurement_wavelength    1.541874
_cell_measurement_radiation   'x-rays'
_cell_measurement_pressure       2180000.000000
_exptl_crystal_density_diffrn    2.981000
loop_
_pd_peak_d_spacing
_pd_peak_intensity
     6.153000         57.75
     5.516537          7.35
     5.457581          5.07
     4.351703         38.73
     3.431370         66.19
     3.416194        140.09
     3.402054        368.19
     3.388914        708.17
     3.085681        984.05
     3.077737        820.22
     3.076500       1000.00
     3.064615        827.04
     3.044575        175.18
     2.758269         16.15
     2.752590         84.81
     2.751926         62.35
     2.728790        127.11
     2.694275        100.62
     2.673576        295.99
     2.320469        107.04
     2.295450         53.61
     2.286104          6.98
     2.281852         27.43
     2.280578          5.67
     2.274167         75.40
     2.267984         51.84
     2.186404         24.99
     2.178653         39.94
     2.175851         23.55
     2.164038         54.11
     2.157160          3.83
     2.051000          0.11
     2.030219         22.97
     2.028967          6.90
     2.026885          2.21
     2.019908         31.36
     2.018028        100.55
     2.015449          6.31
     2.011142          0.40
     2.002659         30.63
     1.946454          0.96
     1.945828          0.15
     1.862002          8.55
     1.843839         16.16
     1.838846         88.43
     1.819194        104.71
     1.786542        167.14
     1.773922        112.53
     1.767087          2.00
     1.762611          0.14
     1.715685          0.29
     1.708097          8.77
     1.707010         34.66
     1.706746         52.85
     1.701027         99.62
     1.699216          8.40
     1.698432         30.31
     1.696559          7.29
     1.694508         12.16
     1.694457         31.09
     1.690738         17.96
     1.689016         56.20
     1.688499          0.46
     1.685892          3.87
     1.684489        129.70
     1.683369          2.04
     1.673544          7.65
     1.643552        171.27
     1.631021          6.91
     1.582787          2.91
     1.580639         13.00
     1.578392          1.08
     1.577411         40.12
     1.573225         38.59
     1.570865         47.75
     1.565911         36.12
     1.561977         12.06
     1.544941         44.74
     1.542840         41.21
     1.542121          0.15
     1.538869         15.53
     1.538250         45.81
     1.532308         27.57
     1.531756          7.57
     1.529387         75.21
     1.522287         32.09
     1.496512          0.08
     1.492887          4.14
     1.492357         27.56
     1.491645          5.17
     1.482258          1.19
     1.477733         15.59
     1.450568          0.37
     1.410617         12.14
     1.410442         21.93
     1.407444          1.18
     1.405933          0.59
     1.404766         11.57
     1.401336          7.20
     1.399845         14.13
     1.399041         26.19
     1.398399          1.00
     1.397813         15.09
     1.392965         18.33
     1.392752          1.80
     1.390040         35.39
     1.382713          0.16
     1.379134          4.97
     1.376671          1.43
     1.376295          1.43
     1.375963          5.74
     1.372961          6.16
     1.367860          2.16
     1.364395          0.01
     1.347138          0.76
     1.341853         16.45
     1.338878        123.71
     1.338737         86.35
     1.336788         57.75
     1.336456         48.59
     1.335094         37.59
     1.334960          0.82
     1.334111         68.23
     1.331235         13.14
     1.330817          1.94
     1.328854         28.23
     1.326631         51.57
     1.324104         40.28
     1.322533          4.10
     1.318045         74.94
     1.311364         65.74
     1.304972         10.91
     1.298859         57.87
     1.288547          5.99
     1.285233         22.07
     1.279658         43.29
     1.279214          9.40
     1.277023         87.77
     1.276501          4.10
     1.276353         50.74
     1.274799          4.60
     1.272980         10.63
     1.265365          0.01
     1.235731          0.13
     1.232946          3.86
     1.230917          9.75
     1.230778         50.96
     1.230600          7.93
     1.229952          5.19
     1.228110         17.76
     1.227847          0.32
     1.226843         13.55
     1.222381         41.85
     1.222256          6.36
     1.221437          1.37
     1.219878          0.00
     1.218198         10.82
     1.218055          0.39
     1.216240         41.28
     1.211910         19.40
     1.207169         11.27
     1.206721          0.36
     1.185489         35.34
     1.181927          2.55
     1.181525         27.89
     1.180105          0.81
     1.178922         29.17
     1.178070         31.64
     1.177183         46.46
     1.176323          0.49
     1.176263         31.45
     1.170247          0.04
     1.169753          0.23
     1.169529          1.31
     1.168228          6.18
     1.167465         30.65
     1.166940          0.12
     1.165690         12.81
     1.162163          1.37
     1.160390          0.00
     1.160234          6.25
     1.158965         17.29
     1.157971          0.07
     1.157042         19.14
     1.157012          1.91
     1.153755          3.06
     1.151677         14.37
     1.148958          0.47
     1.147725          0.09
     1.143790          4.62
     1.143052          2.31
     1.142980          5.22
     1.142647          0.37
     1.142279          0.04
     1.140926          6.64
     1.140289          2.24
     1.138731          0.84
     1.138048          0.94
     1.137083          1.60
     1.134018          5.67
     1.133992          2.67
     1.132018          2.73
     1.129638         13.25
     1.127278         39.31
     1.115205         11.53
     1.105798          0.42
     1.104642         20.44
     1.103603          0.37
     1.103307          7.51
     1.100787          3.53
     1.100311          0.46
     1.100158          3.18
     1.098461          2.88
     1.098363         12.63
     1.096103         15.90
     1.094676         10.48
     1.093202          0.02
     1.092140          1.31
     1.091516         15.36
     1.089326          0.35
     1.089285          0.23
     1.089073          7.85
     1.088519         14.47
     1.087926          0.01
     1.085727          3.27
     1.085404          3.46
     1.082959          3.29
     1.082019          0.29
     1.080287          0.57
     1.078580          0.58
     1.077637         21.67
     1.072094         22.74
     1.071725          3.25
     1.069726          1.26
     1.069283         22.42
     1.069159         11.46
     1.068620         20.67
     1.067621          2.97
     1.067229          7.41
     1.066320          8.06
     1.065584          0.18
     1.065255          0.82
     1.064952          0.01
     1.062797          0.44
     1.060781          1.04
     1.060413          1.55
     1.056672          2.42
     1.055543          3.80
     1.055343          6.41
     1.043001         23.99
     1.040757          0.02
     1.036581          6.67
     1.031233          0.24
     1.028560          0.00
     1.025912          2.55
     1.025500          0.08
     1.021538          5.24
     1.015962          0.04
     1.015109          0.10
     1.014858         20.16
     1.014484          0.00
     1.014391          4.71
     1.013607         17.28
     1.013443          4.24
     1.012073          1.35
     1.011943          0.11
     1.011558          5.43
     1.010389          5.57
     1.010163          9.51
     1.009954         24.63
     1.009852         27.82
     1.009025          2.89
     1.009014         15.56
     1.007752          0.41
     1.007725          4.98
     1.007197          0.07
     1.006658          0.50
##############################################################################
###                            Comments                                    ###
##############################################################################
###   Diffraction pattern calculated by Match!. 
###   I/Ic calculated by Match!. 
###   Space group has been derived from given symmetry operations. 
##############################################################################


