##############################################################################
###               Crystal structure data exported by Match!                ###
##############################################################################
###                           Data published by:                           ###
###                                                                        ###
###               COD (Crystallography Open Database)
##############################################################################
data_9013570
_citation_journal_full    'American Mineralogist'
_citation_journal_volume  '94'
_citation_page_first  '451'
_citation_page_last   '460'
_citation_year  '2009'
_citation_title  'Molecular conformation and anion configuration variations for As4S4 andAs4Se4 in an anion-substituted solid solution Locality: synthetic Note:S1Se1-1'
loop_
_publ_author_name
  'Kyono A.'
_chemical_formula_sum  'As S0.663 Se0.338'
_chemical_name_mineral  'Realgar'
_symmetry_space_group_name_H-M 'P 1 21/n 1'
_space_group_IT_number 14
_space_group_crystal_system 'monoclinic'
loop_
_symmetry_equiv_pos_as_xyz
   'x, y, z'
   '-x+0.5, y+0.5, -z+0.5'
   '-x, -y, -z'
   'x+0.5, -y+0.5, z+0.5'
_cell_length_a        9.43420
_cell_length_b       13.63740
_cell_length_c        6.64430
_cell_angle_alpha    90.0000
_cell_angle_beta    106.5230
_cell_angle_gamma    90.0000
loop_
_atom_site_label
_atom_site_fract_x
_atom_site_fract_y
_atom_site_fract_z
_atom_site_occupancy
_atom_site_B_iso_or_equiv
as      0.119   -0.020   0.761    1.00000    2.250
as      0.424   0.140   0.858    1.00000    2.242
as      0.322   0.128   0.177    1.00000    2.210
as      0.040   0.161   0.710    1.00000    2.392
s      0.344   -0.009   0.698    0.61600    2.597
se      0.344   -0.009   0.698    0.38400    2.597
s      0.214   -0.025   0.119    0.58700    2.447
se      0.214   -0.025   0.119    0.41300    2.447
s      0.240   0.228   0.640    0.78100    2.416
se      0.240   0.228   0.640    0.21900    2.416
s      0.108   0.214   0.054    0.66600    2.629
se      0.108   0.214   0.054    0.33400    2.629
_cell_measurement_wavelength    1.541874
_cell_measurement_radiation   'x-rays'
_exptl_crystal_density_diffrn    3.982000
loop_
_pd_peak_d_spacing
_pd_peak_intensity
     7.537542         69.31
     6.818700         94.53
     6.086189        368.83
     5.771379        549.66
     5.557823        267.33
     5.444762       1000.00
     4.654791        110.48
     4.625370         56.17
     4.540558         13.97
     4.522310         25.25
     4.380284          0.34
     4.292453         15.41
     4.110899        163.64
     4.061659         16.01
     3.827800         30.32
     3.768771        117.60
     3.700209         57.10
     3.644099         77.33
     3.642045          6.53
     3.409350         11.80
     3.242132          8.15
     3.220178         80.09
     3.206029        381.12
     3.190226        407.33
     3.184964        437.77
     3.183614          2.60
     3.128223          8.70
     3.101503        117.49
     3.085412        427.92
     3.043094          8.78
     3.009353        114.93
     3.005885        180.09
     2.980535        242.25
     2.974452          0.06
     2.970049        199.90
     2.951471        495.40
     2.943795         22.84
     2.885689        148.56
     2.811025        213.98
     2.778912         29.12
     2.757371        152.26
     2.744382        544.43
     2.722381        168.99
     2.712359        222.92
     2.677859          0.20
     2.674258         91.98
     2.656722         21.86
     2.611329        179.00
     2.608441         65.24
     2.564458         16.97
     2.552905         46.74
     2.542145        186.11
     2.528778          0.50
     2.512514        117.34
     2.507304          0.14
     2.488975        176.92
     2.467214         73.27
     2.427802         81.62
     2.419176         92.44
     2.376305         84.20
     2.363976          4.91
     2.361497         12.84
     2.349425          0.60
     2.335577         16.51
     2.327396          2.26
     2.320014         46.99
     2.317959          4.27
     2.312685         16.15
     2.304977          1.58
     2.287689          0.72
     2.280131          0.63
     2.272900        163.80
     2.270279          2.16
     2.261155         23.64
     2.258488         49.48
     2.248727         76.20
     2.230701         26.07
     2.223601         31.23
     2.211804        157.80
     2.204362        106.78
     2.190142         39.38
     2.183275         62.67
     2.168421          1.73
     2.155725        100.30
     2.148768          6.32
     2.147468        132.99
     2.146227         46.61
     2.140706          4.93
     2.129286         37.18
     2.129264         45.33
     2.105925          7.24
     2.103888          0.49
     2.098032         20.39
     2.095597          0.02
     2.089082          1.90
     2.071790         56.48
     2.071657          0.09
     2.061262          5.79
     2.061119         12.09
     2.055449         52.22
     2.043505          6.16
     2.039914          3.29
     2.031067          0.47
     2.030829         21.47
     2.028730         32.54
     2.027293          2.08
     2.024527          2.56
     2.022612         18.72
     2.010616         13.21
     2.006647         10.92
     1.998753         57.87
     1.988874         22.23
     1.961692          9.55
     1.947803          0.17
     1.947545          1.14
     1.944490          6.37
     1.942667         48.77
     1.942207          0.65
     1.936108          3.74
     1.927984         28.84
     1.923793          4.25
     1.913900          9.21
     1.913158          3.43
     1.904519         14.84
     1.886840         17.91
     1.885684         24.19
     1.884386          8.57
     1.877174          0.24
     1.874389         51.69
     1.872659        129.47
     1.869035         23.86
     1.867096        153.79
     1.863014          7.05
     1.859064         19.57
     1.855535          2.82
     1.855458          2.38
     1.852608          5.79
     1.850104         94.27
     1.833403          0.65
     1.829970        144.68
     1.829696          0.91
     1.822050         21.36
     1.821022          5.70
     1.818501        180.68
     1.814921         11.73
     1.812804          7.15
     1.802351         38.32
     1.801538        119.19
     1.795436          7.04
     1.793640          2.77
     1.793218          2.30
     1.790170         34.08
     1.789233          0.12
     1.781275         63.40
     1.778282         18.96
     1.775363         15.82
     1.766585          0.44
     1.763935         18.67
     1.756494         24.88
     1.748835          8.01
     1.748444         17.40
     1.743418         70.88
     1.742683         25.31
     1.740748          3.60
     1.726923         15.00
     1.717928        128.77
     1.707638         72.77
     1.704675         58.29
     1.700656          1.40
     1.700320          8.16
     1.696834         63.89
     1.691252         38.67
     1.691083        153.08
     1.686826        101.17
     1.681087         32.38
     1.681051          2.98
     1.680739          2.50
     1.679474          5.81
     1.675462         39.08
     1.675181         29.15
     1.674222          0.03
     1.671663         37.13
     1.661938         10.21
     1.656944         42.42
     1.650882         67.99
     1.647297         13.75
     1.646728          2.53
     1.644848          4.69
     1.641503          7.71
     1.640761         28.24
     1.638613          4.31
     1.637039          9.37
     1.636294         25.60
     1.634494         51.82
     1.627807          0.34
     1.625787          0.04
     1.625371          0.53
     1.623668          2.62
     1.623042          5.20
     1.621066          9.73
     1.612280         21.20
     1.611746         21.91
     1.611668         54.04
     1.610089          2.93
     1.604239          0.03
     1.603014          7.34
     1.599504          0.45
     1.598733          0.98
     1.598233          1.65
     1.597934          7.19
     1.595113         10.55
     1.593090          7.23
     1.592836         20.10
     1.592482          1.43
     1.591807         70.12
     1.585262          0.04
     1.585141         33.50
     1.584963          0.33
     1.581734          5.58
     1.579505          5.10
     1.578929         16.80
     1.576695          0.16
     1.571276         16.76
     1.566761          7.11
     1.564112         30.63
     1.560110          0.02
     1.556753          0.14
     1.556370         29.85
     1.551722          6.61
     1.551597          1.98
     1.551464          3.27
     1.550751          5.89
     1.550490          7.71
     1.542706          0.62
     1.541790          3.68
     1.540210          4.95
     1.532929         22.74
     1.532030          0.04
     1.530357         54.61
     1.529058          2.54
     1.528988         11.04
     1.528535          4.46
     1.521547         55.29
     1.519089          0.00
     1.517487          4.09
     1.515874          2.78
     1.513519         21.17
     1.512164         30.90
     1.512009         56.66
     1.507759          5.82
     1.507508          1.51
     1.507437          1.44
     1.504676          3.28
     1.503826         11.69
     1.502942         22.78
     1.502928          5.86
     1.500392          3.67
     1.498311          0.03
     1.494439          3.14
     1.492089          6.26
     1.490267         26.99
     1.489985         17.93
     1.488376         34.85
     1.487226          0.17
     1.485625          0.05
     1.485287          3.01
     1.485024         13.52
     1.484340         40.24
     1.483897          7.80
     1.478897          2.52
     1.475932          1.12
     1.475736         68.40
     1.474133          2.22
     1.472174          0.26
     1.471897          9.08
     1.470381          1.69
     1.467477          9.94
     1.465917         22.66
     1.465457         48.78
     1.462475          9.68
     1.461946          5.82
     1.460873         15.68
     1.460095          0.52
     1.455713         26.83
     1.451783          2.83
     1.451448          4.91
     1.451048         13.42
     1.445399          1.54
     1.442867          3.76
     1.442845          5.71
     1.439966          0.63
     1.436760         40.47
     1.435506         19.40
     1.430818          0.03
     1.429549          2.68
     1.429235          1.81
     1.426375          4.00
     1.424954          0.25
     1.423515         12.37
     1.422158          9.53
     1.416111         16.31
     1.415590          9.62
     1.415382          1.15
     1.412126          2.74
     1.406255          5.40
     1.405513          2.03
     1.405192          2.77
     1.404820          0.26
     1.403624          4.17
     1.403242          6.20
     1.402636         12.72
     1.402473          9.92
     1.395168          0.04
     1.394771          0.02
     1.389456          3.48
     1.386362          0.59
     1.383826          0.17
     1.382512          1.47
     1.382095          0.05
     1.381473          1.17
     1.380895         27.70
     1.380307          2.67
     1.378686          1.08
     1.378042         34.07
     1.377354          1.61
     1.376756          8.15
     1.375234          7.51
     1.375136          0.33
     1.374477          4.70
     1.372191          5.65
     1.371917          0.30
     1.370933          1.25
     1.370300          0.17
     1.368305          3.74
     1.363740          1.22
     1.361190          5.57
     1.360950          0.03
     1.360099          0.02
     1.359266          0.68
     1.356414          8.54
     1.356179          1.91
     1.355371          1.82
     1.354001          2.26
     1.353886          0.32
     1.350196          2.17
     1.348498          0.33
     1.347340          0.17
     1.346804          3.86
     1.342892          4.61
     1.342793         15.85
     1.342189          0.06
     1.341597          1.63
     1.339452          2.56
     1.338930          0.64
     1.337129         30.70
     1.336429          0.00
     1.335560          0.02
     1.333522         11.73
     1.333462          3.92
     1.330742          3.79
     1.330705          4.10
     1.329285          8.38
     1.329106          0.14
     1.328771          9.05
     1.328361          0.12
     1.325779          0.06
     1.325608          0.65
     1.324301          1.01
     1.323844          0.89
     1.322591          8.49
     1.321817         22.06
     1.321187          0.09
     1.320849          0.94
     1.319342          0.47
     1.317583          0.09
     1.315271          0.02
     1.314210          1.83
     1.313701          5.14
     1.312543          0.02
     1.312098          3.07
     1.309196          0.01
     1.308271          0.21
     1.308150          1.28
     1.308069          6.47
     1.307557          1.84
     1.305665          4.26
     1.305106          0.76
     1.304317          8.85
     1.304221          2.59
     1.303543          0.00
     1.303057          0.77
     1.300246          4.63
     1.298143          0.01
     1.293749          0.21
     1.292018          2.26
     1.291465          2.23
     1.291194          7.57
     1.290460          3.09
     1.287966         12.45
     1.287872          1.51
     1.286874          9.19
     1.286328          0.09
     1.282747          1.55
     1.282712          0.25
     1.282229          0.01
     1.280387          0.06
     1.278317          1.10
     1.276749          4.77
     1.276452          2.40
     1.275933          2.70
     1.275474          4.31
     1.273834          0.48
     1.271446          0.08
     1.271190          0.85
     1.271072          0.00
     1.270372          8.24
     1.269498          8.17
     1.268463          3.29
     1.268064          0.91
     1.267447          0.88
     1.264900          0.12
     1.264389         11.02
     1.263448          0.14
     1.262508          2.47
     1.262179          1.20
     1.261697          0.13
     1.261128          0.24
     1.259355          0.42
     1.258900          0.04
     1.258763          0.08
     1.256257          0.50
     1.254939          0.84
     1.254152          1.82
     1.253652          1.10
     1.253314          0.35
     1.253042          9.64
     1.252610          2.07
     1.252315          1.90
     1.250384          0.89
     1.250053          1.15
     1.249461          0.72
     1.247332          1.30
     1.247283          0.20
     1.247036          5.39
     1.246999          2.08
     1.245803         16.76
     1.244780          0.38
     1.244487          0.00
     1.244335          9.49
     1.243219          0.43
     1.242858          4.81
     1.242535          0.68
     1.240979          0.51
     1.240745          0.74
     1.240605          6.87
     1.239661          0.72
     1.238131          0.20
     1.234075          5.14
     1.233607          6.80
     1.233403          0.06
     1.232978          0.00
     1.232433          2.73
     1.229187          0.22
     1.228591          0.54
     1.228448         11.22
     1.228278          2.57
     1.227122         16.39
     1.226721          0.14
     1.226260          4.24
     1.223297          1.32
     1.222653          0.29
     1.221431          2.63
     1.220598          0.00
     1.218006          8.80
     1.217238          0.02
     1.216929          4.63
     1.216710          0.27
     1.214816          3.14
     1.214720          0.11
     1.214700          1.02
     1.214015         11.55
     1.213901          1.85
     1.212418          6.13
     1.211896          0.65
     1.209930          0.21
     1.209588          1.37
     1.209437          4.13
     1.208996          6.46
     1.208230          0.21
     1.206433          3.18
     1.204780          3.77
     1.201477          0.15
     1.200582          1.19
     1.199299          5.72
     1.199161          0.00
     1.198621         11.35
     1.198294          0.84
     1.198243          0.44
     1.197791          0.45
     1.197494          4.06
##############################################################################
###                            Comments                                    ###
##############################################################################
###   Diffraction pattern calculated by Match!. 
###   I/Ic calculated by Match!. 
##############################################################################


