##############################################################################
###               Crystal structure data exported by Match!                ###
##############################################################################
###                           Data published by:                           ###
###                                                                        ###
###               COD (Crystallography Open Database)
##############################################################################
data_2300585
_citation_journal_full    'Journal of Applied Crystallography'
_citation_journal_volume  '1'
_citation_page_first  '124'
_citation_page_last   '126'
_citation_year  '1968'
_citation_title  'Roentgenbeugungs- und Neutronenbeugungsuntersuchungen an Ferriten derReihe Mnx Zn1-x Fe2 O4'
loop_
_publ_author_name
  'Koenig U.'
  'Chol G.'
_chemical_formula_sum  'Fe2 Mn O4'
_chemical_name_common  'Iron manganese oxide'
_symmetry_space_group_name_H-M 'F d -3 m'
_space_group_IT_number 227
_space_group_crystal_system 'cubic'
loop_
_symmetry_equiv_pos_as_xyz
   'x, y, z'
   'x+0.5, y+0.5, z'
   'x+0.5, y, z+0.5'
   'x, y+0.5, z+0.5'
   '-x+0.25, -y+0.25, -z+0.25'
   '-x+0.75, -y+0.75, -z+0.25'
   '-x+0.75, -y+0.25, -z+0.75'
   '-x+0.25, -y+0.75, -z+0.75'
   '-y+0.25, x+0.25, z+0.25'
   '-y+0.75, x+0.75, z+0.25'
   '-y+0.75, x+0.25, z+0.75'
   '-y+0.25, x+0.75, z+0.75'
   '-x, -y, z'
   '-x+0.5, -y+0.5, z'
   '-x+0.5, -y, z+0.5'
   '-x, -y+0.5, z+0.5'
   'y+0.25, -x+0.25, z+0.25'
   'y+0.75, -x+0.75, z+0.25'
   'y+0.75, -x+0.25, z+0.75'
   'y+0.25, -x+0.75, z+0.75'
   'x+0.25, -z+0.25, y+0.25'
   'x+0.75, -z+0.75, y+0.25'
   'x+0.75, -z+0.25, y+0.75'
   'x+0.25, -z+0.75, y+0.75'
   'x, -y, -z'
   'x+0.5, -y+0.5, -z'
   'x+0.5, -y, -z+0.5'
   'x, -y+0.5, -z+0.5'
   'x+0.25, z+0.25, -y+0.25'
   'x+0.75, z+0.75, -y+0.25'
   'x+0.75, z+0.25, -y+0.75'
   'x+0.25, z+0.75, -y+0.75'
   'z+0.25, y+0.25, -x+0.25'
   'z+0.75, y+0.75, -x+0.25'
   'z+0.75, y+0.25, -x+0.75'
   'z+0.25, y+0.75, -x+0.75'
   '-x, y, -z'
   '-x+0.5, y+0.5, -z'
   '-x+0.5, y, -z+0.5'
   '-x, y+0.5, -z+0.5'
   '-z+0.25, y+0.25, x+0.25'
   '-z+0.75, y+0.75, x+0.25'
   '-z+0.75, y+0.25, x+0.75'
   '-z+0.25, y+0.75, x+0.75'
   'y, -x, -z'
   'y+0.5, -x+0.5, -z'
   'y+0.5, -x, -z+0.5'
   'y, -x+0.5, -z+0.5'
   '-y, x, -z'
   '-y+0.5, x+0.5, -z'
   '-y+0.5, x, -z+0.5'
   '-y, x+0.5, -z+0.5'
   '-x, z, -y'
   '-x+0.5, z+0.5, -y'
   '-x+0.5, z, -y+0.5'
   '-x, z+0.5, -y+0.5'
   '-x, -z, y'
   '-x+0.5, -z+0.5, y'
   '-x+0.5, -z, y+0.5'
   '-x, -z+0.5, y+0.5'
   '-z, -y, x'
   '-z+0.5, -y+0.5, x'
   '-z+0.5, -y, x+0.5'
   '-z, -y+0.5, x+0.5'
   'z, -y, -x'
   'z+0.5, -y+0.5, -x'
   'z+0.5, -y, -x+0.5'
   'z, -y+0.5, -x+0.5'
   'z, x, y'
   'z+0.5, x+0.5, y'
   'z+0.5, x, y+0.5'
   'z, x+0.5, y+0.5'
   'y, z, x'
   'y+0.5, z+0.5, x'
   'y+0.5, z, x+0.5'
   'y, z+0.5, x+0.5'
   '-y, -z, x'
   '-y+0.5, -z+0.5, x'
   '-y+0.5, -z, x+0.5'
   '-y, -z+0.5, x+0.5'
   'z, -x, -y'
   'z+0.5, -x+0.5, -y'
   'z+0.5, -x, -y+0.5'
   'z, -x+0.5, -y+0.5'
   '-y, z, -x'
   '-y+0.5, z+0.5, -x'
   '-y+0.5, z, -x+0.5'
   '-y, z+0.5, -x+0.5'
   '-z, -x, y'
   '-z+0.5, -x+0.5, y'
   '-z+0.5, -x, y+0.5'
   '-z, -x+0.5, y+0.5'
   '-z, x, -y'
   '-z+0.5, x+0.5, -y'
   '-z+0.5, x, -y+0.5'
   '-z, x+0.5, -y+0.5'
   'y, -z, -x'
   'y+0.5, -z+0.5, -x'
   'y+0.5, -z, -x+0.5'
   'y, -z+0.5, -x+0.5'
   '-z+0.25, -x+0.25, -y+0.25'
   '-z+0.75, -x+0.75, -y+0.25'
   '-z+0.75, -x+0.25, -y+0.75'
   '-z+0.25, -x+0.75, -y+0.75'
   '-y+0.25, -z+0.25, -x+0.25'
   '-y+0.75, -z+0.75, -x+0.25'
   '-y+0.75, -z+0.25, -x+0.75'
   '-y+0.25, -z+0.75, -x+0.75'
   'y+0.25, z+0.25, -x+0.25'
   'y+0.75, z+0.75, -x+0.25'
   'y+0.75, z+0.25, -x+0.75'
   'y+0.25, z+0.75, -x+0.75'
   '-z+0.25, x+0.25, y+0.25'
   '-z+0.75, x+0.75, y+0.25'
   '-z+0.75, x+0.25, y+0.75'
   '-z+0.25, x+0.75, y+0.75'
   'y+0.25, -z+0.25, x+0.25'
   'y+0.75, -z+0.75, x+0.25'
   'y+0.75, -z+0.25, x+0.75'
   'y+0.25, -z+0.75, x+0.75'
   'z+0.25, x+0.25, -y+0.25'
   'z+0.75, x+0.75, -y+0.25'
   'z+0.75, x+0.25, -y+0.75'
   'z+0.25, x+0.75, -y+0.75'
   'z+0.25, -x+0.25, y+0.25'
   'z+0.75, -x+0.75, y+0.25'
   'z+0.75, -x+0.25, y+0.75'
   'z+0.25, -x+0.75, y+0.75'
   '-y+0.25, z+0.25, x+0.25'
   '-y+0.75, z+0.75, x+0.25'
   '-y+0.75, z+0.25, x+0.75'
   '-y+0.25, z+0.75, x+0.75'
   'y+0.25, x+0.25, -z+0.25'
   'y+0.75, x+0.75, -z+0.25'
   'y+0.75, x+0.25, -z+0.75'
   'y+0.25, x+0.75, -z+0.75'
   '-y+0.25, -x+0.25, -z+0.25'
   '-y+0.75, -x+0.75, -z+0.25'
   '-y+0.75, -x+0.25, -z+0.75'
   '-y+0.25, -x+0.75, -z+0.75'
   '-x+0.25, z+0.25, y+0.25'
   '-x+0.75, z+0.75, y+0.25'
   '-x+0.75, z+0.25, y+0.75'
   '-x+0.25, z+0.75, y+0.75'
   '-x+0.25, -z+0.25, -y+0.25'
   '-x+0.75, -z+0.75, -y+0.25'
   '-x+0.75, -z+0.25, -y+0.75'
   '-x+0.25, -z+0.75, -y+0.75'
   'z+0.25, -y+0.25, x+0.25'
   'z+0.75, -y+0.75, x+0.25'
   'z+0.75, -y+0.25, x+0.75'
   'z+0.25, -y+0.75, x+0.75'
   '-z+0.25, -y+0.25, -x+0.25'
   '-z+0.75, -y+0.75, -x+0.25'
   '-z+0.75, -y+0.25, -x+0.75'
   '-z+0.25, -y+0.75, -x+0.75'
   'x+0.25, y+0.25, -z+0.25'
   'x+0.75, y+0.75, -z+0.25'
   'x+0.75, y+0.25, -z+0.75'
   'x+0.25, y+0.75, -z+0.75'
   '-x+0.25, y+0.25, z+0.25'
   '-x+0.75, y+0.75, z+0.25'
   '-x+0.75, y+0.25, z+0.75'
   '-x+0.25, y+0.75, z+0.75'
   'x+0.25, -y+0.25, z+0.25'
   'x+0.75, -y+0.75, z+0.25'
   'x+0.75, -y+0.25, z+0.75'
   'x+0.25, -y+0.75, z+0.75'
   '-y, -x, z'
   '-y+0.5, -x+0.5, z'
   '-y+0.5, -x, z+0.5'
   '-y, -x+0.5, z+0.5'
   'y, x, z'
   'y+0.5, x+0.5, z'
   'y+0.5, x, z+0.5'
   'y, x+0.5, z+0.5'
   'x, -z, -y'
   'x+0.5, -z+0.5, -y'
   'x+0.5, -z, -y+0.5'
   'x, -z+0.5, -y+0.5'
   'x, z, y'
   'x+0.5, z+0.5, y'
   'x+0.5, z, y+0.5'
   'x, z+0.5, y+0.5'
   '-z, y, -x'
   '-z+0.5, y+0.5, -x'
   '-z+0.5, y, -x+0.5'
   '-z, y+0.5, -x+0.5'
   'z, y, x'
   'z+0.5, y+0.5, x'
   'z+0.5, y, x+0.5'
   'z, y+0.5, x+0.5'
_cell_length_a        8.51100
_cell_length_b        8.51100
_cell_length_c        8.51100
_cell_angle_alpha    90.0000
_cell_angle_beta     90.0000
_cell_angle_gamma    90.0000
_cell_formula_units_Z 8
loop_
_atom_site_label
_atom_site_fract_x
_atom_site_fract_y
_atom_site_fract_z
_atom_site_occupancy
_atom_site_B_iso_or_equiv
fe      0.000   0.000   0.000    0.15000    1.000
mn      0.000   0.000   0.000    0.85000    1.000
o      0.387   0.387   0.387    1.00000    1.000
mn      0.625   0.625   0.625    0.07500    1.000
fe      0.625   0.625   0.625    0.92500    1.000
_cell_measurement_wavelength    1.541874
_cell_measurement_radiation   'x-rays'
_exptl_crystal_density_diffrn    4.969000
loop_
_pd_peak_d_spacing
_pd_peak_intensity
     4.913828        146.77
     3.009093        290.71
     2.566163       1000.00
     2.456914         90.70
     2.127750        218.45
     1.952557          3.04
     1.737301         85.73
     1.637943        332.52
     1.504546        399.60
     1.438622         15.93
     1.418500          0.23
     1.345707         27.64
     1.297915         80.22
     1.283081         41.14
     1.228457         25.22
     1.191778          8.92
     1.137330         34.05
     1.108038        115.23
     1.063875         44.26
     1.039784          0.01
     1.032110          0.04
     1.003031         17.31
     0.982766         72.56
     0.976279         18.89
     0.951559         28.92
     0.934204          4.59
     0.928626          0.30
     0.907276          6.50
     0.892195         67.04
     0.868650        125.78
     0.855388          3.18
     0.834572         29.89
     0.822789        114.93
     0.818971         31.37
     0.793655         10.35
     0.790226          0.44
##############################################################################
###                            Comments                                    ###
##############################################################################
###   Diffraction pattern calculated by Match!. 
###   I/Ic calculated by Match!. 
###   Space group has been derived from given symmetry operations. 
##############################################################################


