##############################################################################
###               Crystal structure data exported by Match!                ###
##############################################################################
###                           Data published by:                           ###
###                                                                        ###
###               COD (Crystallography Open Database)
##############################################################################
data_1529831
_citation_journal_full    'Journal of Solid State Chemistry'
_citation_journal_volume  '57'
_citation_page_first  '240'
_citation_page_last   '247'
_citation_year  '1985'
_citation_title  'Cu3 (P O4)2 H2 O: Synthese und Kristallstruktur'
loop_
_publ_author_name
  'Effenberger H.'
_chemical_formula_sum  'Cu3 H2 O9 P2'
_chemical_name_common  'Cu3 (P O4)2 H2 O'
_symmetry_space_group_name_H-M 'C 1 2/c 1'
_space_group_IT_number 15
_space_group_crystal_system 'monoclinic'
loop_
_symmetry_equiv_pos_as_xyz
   'x, y, z'
   'x+0.5, y+0.5, z'
   '-x, y, -z+0.5'
   '-x+0.5, y+0.5, -z+0.5'
   '-x, -y, -z'
   '-x+0.5, -y+0.5, -z'
   'x, -y, z+0.5'
   'x+0.5, -y+0.5, z+0.5'
_cell_length_a       18.05000
_cell_length_b        6.20000
_cell_length_c       12.26000
_cell_angle_alpha    90.0000
_cell_angle_beta    105.5000
_cell_angle_gamma    90.0000
_cell_formula_units_Z 8
loop_
_atom_site_label
_atom_site_fract_x
_atom_site_fract_y
_atom_site_fract_z
_atom_site_occupancy
_atom_site_B_iso_or_equiv
p      0.072   0.176   0.403    1.00000    1.000
cu      0.092   0.682   0.361    1.00000    1.000
o      0.284   0.448   0.269    1.00000    1.000
o      0.161   0.333   0.121    1.00000    1.000
o      0.294   0.205   0.111    1.00000    1.000
o      0.253   0.594   0.071    1.00000    1.000
cu      0.250   -0.088   0.092    1.00000    1.000
h      0.024   0.481   0.636    1.00000    1.000
o      0.083   -0.012   0.323    1.00000    1.000
cu      0.113   0.095   0.183    1.00000    1.000
h      0.032   0.293   0.599    1.00000    1.000
o      -0.015   0.228   0.383    1.00000    1.000
p      0.246   0.394   0.142    1.00000    1.000
o      0.106   0.117   0.527    1.00000    1.000
o      0.020   0.351   0.644    1.00000    1.000
o      0.111   0.376   0.366    1.00000    1.000
_cell_measurement_wavelength    1.541874
_cell_measurement_radiation   'x-rays'
_exptl_crystal_density_diffrn    4.004000
loop_
_pd_peak_d_spacing
_pd_peak_intensity
     8.696764        503.81
     5.907055         71.02
     5.840072        254.64
     5.636471        437.88
     5.432563          2.61
     5.058144         20.14
     4.373346          8.01
     4.352899        140.82
     4.348382          0.26
     4.259180        173.00
     4.234734         73.49
     4.057629          1.22
     3.978392        472.53
     3.812021        172.25
     3.760065         27.93
     3.409986        343.60
     3.213516        279.12
     3.161835          1.10
     3.137198        262.65
     3.125713        346.32
     3.118772         50.06
     3.100000          0.82
     3.056392         21.04
     3.033792        106.17
     2.998491         81.25
     2.997474          0.37
     2.953527       1000.00
     2.930531          7.11
     2.920036        215.56
     2.898921        940.85
     2.895905        683.39
     2.818236         10.00
     2.786182         88.42
     2.777279        140.39
     2.744964         19.67
     2.736378         41.66
     2.730600         14.98
     2.716281         69.19
     2.680412        307.29
     2.638398         52.60
     2.593558         28.85
     2.550676        194.28
     2.545270         35.75
     2.529072        109.17
     2.524217         25.83
     2.474471          8.35
     2.463356         48.59
     2.453249        263.74
     2.435834         18.02
     2.416800        180.88
     2.416383         70.59
     2.393787        272.19
     2.377336         24.16
     2.364487          1.31
     2.355556        180.57
     2.306454          5.12
     2.292860          0.68
     2.262047          0.85
     2.259544          3.89
     2.250927         32.12
     2.248237         93.82
     2.243999         98.68
     2.227120         46.46
     2.201066          0.86
     2.186673         11.07
     2.176449         10.67
     2.174191        173.79
     2.171109         12.02
     2.164974         39.76
     2.158606          1.09
     2.138366         70.04
     2.129590          3.78
     2.125052         41.39
     2.118843         57.76
     2.117367         20.57
     2.086112          0.01
     2.085307          8.21
     2.052231         33.18
     2.041502        273.72
     2.038198         13.34
     2.032788        133.73
     2.028814         15.56
     2.016918         10.71
     2.011286          3.55
     2.006464         51.53
     1.989527         16.33
     1.989196         43.90
     1.987902        123.78
     1.969018          1.17
     1.957801         39.00
     1.949049        110.81
     1.946691         10.55
     1.935738          2.76
     1.923122        182.93
     1.919894          0.01
     1.918671         10.25
     1.910766          5.97
     1.906010          7.73
     1.905869         37.70
     1.904872          6.95
     1.903254          3.65
     1.900260         42.82
     1.898289         16.62
     1.893724          0.26
     1.883708         55.55
     1.880033          3.14
     1.879195         43.66
     1.878824         14.98
     1.876327          6.26
     1.863365         54.51
     1.861617         42.13
     1.845055         17.29
     1.843915          4.35
     1.837870         43.73
     1.819804         29.36
     1.818594          1.23
     1.817740         41.70
     1.817115          0.07
     1.810854          0.97
     1.804564         66.54
     1.804280          8.01
     1.801452         31.59
     1.796859         25.98
     1.793377          2.28
     1.786866         10.74
     1.782445         51.30
     1.780035         36.62
     1.776767          1.63
     1.774259         66.90
     1.769385          3.76
     1.761155          5.56
     1.756440         28.88
     1.755938         15.72
     1.739353          6.40
     1.729407         51.43
     1.723455          6.93
     1.722766        141.18
     1.712129         10.10
     1.710795          9.48
     1.709380          0.05
     1.706035          4.34
     1.704993          2.39
     1.703434         53.09
     1.697581          4.53
     1.696859         70.45
     1.686048         13.14
     1.684991          6.70
     1.684423         34.20
     1.683606          1.01
     1.676416         10.86
     1.665486          6.39
     1.662085          0.02
     1.661636         47.99
     1.660965         36.80
     1.646919         38.84
     1.645705         10.37
     1.640811          0.45
     1.636840        116.28
     1.632030          3.57
     1.623536         15.34
     1.611534          7.15
     1.609809         46.75
     1.606758          1.56
     1.605233         40.07
     1.604699         63.16
     1.599884          7.72
     1.588912          4.28
     1.586292         19.57
     1.583919         26.60
     1.580918          4.44
     1.574171        105.79
     1.573326         18.13
     1.572276         38.39
     1.572090          0.10
     1.569495         55.94
     1.568599         20.03
     1.562857         14.39
     1.562258          7.06
     1.559421         79.80
     1.559405         12.50
     1.559386          8.20
     1.558698         22.61
     1.550894         16.48
     1.550000         49.48
     1.542550          6.44
     1.541106        106.77
     1.540345          9.14
     1.536830         32.59
     1.532185          0.71
     1.531841         24.58
     1.528196          3.49
     1.527721          0.36
     1.525954         13.52
     1.525768         16.19
     1.524726          0.11
     1.523465          0.60
     1.522478         19.46
     1.521564          1.53
     1.520731         35.17
     1.516896         14.08
     1.515870          1.05
     1.511162          2.10
     1.504446         36.16
     1.503780         11.22
     1.503274         51.22
     1.499723          3.03
     1.499245          0.03
     1.498737          5.74
     1.494520          0.48
     1.492894          2.46
     1.487608         95.65
     1.486281          0.97
     1.482289         20.29
     1.477423         42.81
     1.476764          3.63
     1.472550          8.58
     1.472094          3.69
     1.471632          0.74
     1.471175         33.87
     1.469396          0.02
     1.466659         18.35
     1.465266         40.95
     1.465085         37.79
     1.463245         58.92
     1.462117        105.89
     1.460956          8.81
     1.460018          0.15
     1.457782          9.02
     1.450966          7.07
     1.449461         30.17
     1.447952          1.98
     1.447456          0.52
     1.445892         43.58
     1.443737         14.92
     1.443075          0.00
     1.442301         49.32
     1.441935         18.89
     1.440360          3.35
     1.438259          4.96
     1.437895         26.66
     1.437830         12.39
     1.437134         60.92
     1.434993         37.26
     1.433424          0.88
     1.419727          2.10
     1.418953          4.74
     1.412993          2.29
     1.411578          4.76
     1.411361          0.00
     1.410846          4.38
     1.409118          0.59
     1.407524         34.10
     1.402111          1.69
     1.400908         33.81
     1.398948          5.43
     1.397748          6.52
     1.397226          4.58
     1.395665          0.15
     1.395539          8.87
     1.393197          4.49
     1.393091          0.29
     1.388639          4.85
     1.385394         10.23
     1.382942         26.35
     1.382395          0.00
     1.377789         31.33
     1.372482         14.44
     1.370695          7.27
     1.370451          1.61
     1.370153          3.95
     1.368189          1.13
     1.366881         31.53
     1.365300         14.48
     1.358141          9.21
     1.354840         17.44
     1.353751         13.61
     1.352994          4.72
     1.352543          0.05
     1.351263         33.19
     1.349362          6.56
     1.347475          7.41
     1.347319          4.13
     1.344869          4.93
     1.342130          1.96
     1.341117         14.21
     1.340206          0.03
     1.338723          3.51
     1.338701          9.92
     1.335914         31.55
     1.335223         24.19
##############################################################################
###                            Comments                                    ###
##############################################################################
###   Diffraction pattern calculated by Match!. 
###   I/Ic calculated by Match!. 
##############################################################################


