##############################################################################
###               Crystal structure data exported by Match!                ###
##############################################################################
###                           Data published by:                           ###
###                                                                        ###
###               COD (Crystallography Open Database)
##############################################################################
data_9009668
_citation_journal_full    'Journal of Applied Crystallography'
_citation_journal_volume  '38'
_citation_page_first  '158'
_citation_page_last   '167'
_citation_year  '2005'
_citation_title  'Comparative evaluation of the March and generalized spherical harmonicpreferred orientation models using X-ray diffraction data for molybditeand calcite powdersNote: GSH modelLocality: synthetic'
loop_
_publ_author_name
  'Sitepu H.'
  'O?Connor B H'
  'Li D.'
_chemical_formula_sum  'C Ca O3'
_chemical_name_mineral  'Calcite'
_symmetry_space_group_name_H-M 'R -3 c'
_space_group_IT_number 167
_space_group_crystal_system 'trigonal (hexagonal axes)'
loop_
_symmetry_equiv_pos_as_xyz
   'x, y, z'
   'x+0.66667, y+0.33333, z+0.33333'
   'x+0.33333, y+0.66667, z+0.66667'
   '-y, x-y, z'
   '-y+0.66667, x-y+0.33333, z+0.33333'
   '-y+0.33333, x-y+0.66667, z+0.66667'
   '-x+y, -x, z'
   '-x+y+0.66667, -x+0.33333, z+0.33333'
   '-x+y+0.33333, -x+0.66667, z+0.66667'
   'x-y, -y, -z+0.5'
   'x-y+0.66667, -y+0.33333, -z+0.83333'
   'x-y+0.33333, -y+0.66667, -z+0.16667'
   '-x, -x+y, -z+0.5'
   '-x+0.66667, -x+y+0.33333, -z+0.83333'
   '-x+0.33333, -x+y+0.66667, -z+0.16667'
   'y, x, -z+0.5'
   'y+0.66667, x+0.33333, -z+0.83333'
   'y+0.33333, x+0.66667, -z+0.16667'
   '-x, -y, -z'
   '-x+0.66667, -y+0.33333, -z+0.33333'
   '-x+0.33333, -y+0.66667, -z+0.66667'
   'y, -x+y, -z'
   'y+0.66667, -x+y+0.33333, -z+0.33333'
   'y+0.33333, -x+y+0.66667, -z+0.66667'
   'x-y, x, -z'
   'x-y+0.66667, x+0.33333, -z+0.33333'
   'x-y+0.33333, x+0.66667, -z+0.66667'
   '-x+y, y, z+0.5'
   '-x+y+0.66667, y+0.33333, z+0.83333'
   '-x+y+0.33333, y+0.66667, z+0.16667'
   'x, x-y, z+0.5'
   'x+0.66667, x-y+0.33333, z+0.83333'
   'x+0.33333, x-y+0.66667, z+0.16667'
   '-y, -x, z+0.5'
   '-y+0.66667, -x+0.33333, z+0.83333'
   '-y+0.33333, -x+0.66667, z+0.16667'
_cell_length_a        4.99200
_cell_length_b        4.99200
_cell_length_c       17.06900
_cell_angle_alpha    90.0000
_cell_angle_beta     90.0000
_cell_angle_gamma   120.0000
loop_
_atom_site_label
_atom_site_fract_x
_atom_site_fract_y
_atom_site_fract_z
_atom_site_occupancy
_atom_site_B_iso_or_equiv
ca      0.000   0.000   0.000    1.00000    1.204
c      0.000   0.000   0.250    1.00000    1.645
o      0.250   0.000   0.250    1.00000    1.645
_cell_measurement_wavelength    1.541874
_cell_measurement_radiation   'x-rays'
_exptl_crystal_density_diffrn    2.707000
loop_
_pd_peak_d_spacing
_pd_peak_intensity
     3.856621         65.66
     3.036989       1000.00
     2.844833         20.03
     2.496000        145.24
     2.285729        167.35
     2.095433        141.49
     1.928310         59.47
     1.913299        192.16
     1.876217        186.63
     1.626579         35.89
     1.604866         97.88
     1.587635          8.13
     1.525966         47.60
     1.518495         23.32
     1.510084         24.43
     1.473878         21.48
     1.441066         55.07
     1.422417         34.53
     1.357422         13.77
     1.339604         21.69
     1.297283         24.37
     1.285540          7.81
     1.248000         10.43
     1.235828         20.06
     1.187378          5.94
     1.180349         24.59
     1.173443          2.86
     1.154336         40.22
     1.142864         21.49
     1.125203          5.08
     1.072236          0.00
     1.061941          8.16
     1.047717         26.01
     1.045289         27.88
     1.035744         13.55
     1.035406          3.49
     1.023510          3.33
     1.012330         25.41
##############################################################################
###                            Comments                                    ###
##############################################################################
###   Diffraction pattern calculated by Match!. 
###   I/Ic calculated by Match!. 
##############################################################################


