##############################################################################
###               Crystal structure data exported by Match!                ###
##############################################################################
###                           Data published by:                           ###
###                                                                        ###
###               COD (Crystallography Open Database)
##############################################################################
data_9010143
_citation_journal_full    'American Mineralogist'
_citation_journal_volume  '92'
_citation_page_first  '57'
_citation_page_last   '63'
_citation_year  '2007'
_citation_title  'First in situ X-ray diffraction identification of coesite and retrogradequartz on a glass thin section of an ultrahigh-pressure metamorphic rock andtheir crystal structure details Locality: Yangkou meta-igneous complex in themiddle part of the Sulu UHP terrain, eastern China Note: Sample is on a thinsection'
loop_
_publ_author_name
  'Ikuta D.'
  'Kawame N.'
  'Banno S.'
  'Hirajima T.'
  'Ito K.'
  'Rakovan J. F.'
  'Downs R. T.'
  'Tamada O.'
_chemical_formula_sum  'O2 Si'
_chemical_name_mineral  'Coesite'
_symmetry_space_group_name_H-M 'C 1 2/c 1'
_space_group_IT_number 15
_space_group_crystal_system 'monoclinic'
loop_
_symmetry_equiv_pos_as_xyz
   'x, y, z'
   'x+0.5, y+0.5, z'
   '-x, y, -z+0.5'
   '-x+0.5, y+0.5, -z+0.5'
   '-x, -y, -z'
   '-x+0.5, -y+0.5, -z'
   'x, -y, z+0.5'
   'x+0.5, -y+0.5, z+0.5'
_cell_length_a        7.14000
_cell_length_b       12.37100
_cell_length_c        7.17500
_cell_angle_alpha    90.0000
_cell_angle_beta    120.3400
_cell_angle_gamma    90.0000
loop_
_atom_site_label
_atom_site_fract_x
_atom_site_fract_y
_atom_site_fract_z
_atom_site_occupancy
_atom_site_B_iso_or_equiv
si      0.140   0.108   0.072    1.00000    1.105
si      0.507   0.158   0.541    1.00000    1.184
o      0.000   0.000   0.000    1.00000    1.263
o      0.500   0.116   0.750    1.00000    1.184
o      0.267   0.124   0.941    1.00000    1.579
o      0.310   0.104   0.328    1.00000    1.579
o      0.017   0.212   0.478    1.00000    1.342
_cell_measurement_wavelength    1.541874
_cell_measurement_radiation   'x-rays'
_exptl_crystal_density_diffrn    2.919000
loop_
_pd_peak_d_spacing
_pd_peak_intensity
     6.185500         62.50
     5.549328         10.42
     5.515737          5.16
     4.376223         51.87
     3.445531         65.47
     3.435106        136.02
     3.427093        406.22
     3.421444        711.90
     3.104537       1000.00
     3.096167        850.73
     3.092750        994.84
     3.091881        846.49
     3.081064        171.85
     2.774664         21.61
     2.768684         75.62
     2.766850         60.58
     2.757868        141.25
     2.706586         91.60
     2.694864        307.04
     2.337524         83.97
     2.305388         35.43
     2.300136          8.93
     2.298439          2.80
     2.296034         26.49
     2.293330         61.90
     2.292928         39.13
     2.196161         20.60
     2.191060         33.81
     2.188112         21.65
     2.182761         58.71
     2.179542          1.22
     2.061833          0.17
     2.041320          4.39
     2.039429         20.80
     2.036773          0.97
     2.035790         25.27
     2.031764         85.21
     2.031068          7.42
     2.030788          0.46
     2.026302         26.34
     1.957972          2.25
     1.956243          0.61
     1.870729          7.54
     1.860426         15.04
     1.849776         72.19
     1.838579         91.49
     1.793741        166.95
     1.785433        102.56
     1.784931          1.55
     1.780159          0.16
     1.722766          0.71
     1.717553          9.17
     1.716861         29.79
     1.716132         41.69
     1.714956         31.18
     1.713547        104.12
     1.710722         29.63
     1.707202          7.46
     1.704414          6.22
     1.702579          7.20
     1.700460          0.51
     1.699774         17.63
     1.698800         59.34
     1.697705          2.02
     1.697580        117.09
     1.697541          2.93
     1.692587          7.05
     1.656338        154.58
     1.649173          6.44
     1.590348          3.53
     1.588094         11.69
     1.587499          0.91
     1.585357         34.33
     1.582991         37.81
     1.582561         45.95
     1.580404         33.78
     1.578514          7.64
     1.552269         40.65
     1.551654         37.17
     1.549637          0.58
     1.548084         17.85
     1.546375         41.97
     1.545941         34.20
     1.543765          3.59
     1.542837         72.43
     1.540532         32.69
     1.505584          0.83
     1.502589          4.76
     1.501764          4.77
     1.500301         23.31
     1.497234          0.40
     1.494867         14.61
     1.458741          0.96
     1.418967         17.95
     1.416494          9.55
     1.414316          0.44
     1.412730          0.17
     1.411684         10.43
     1.410702         12.00
     1.410475          6.83
     1.408902         11.25
     1.408831         21.79
     1.408809          1.07
     1.407926         16.03
     1.405973          1.87
     1.404801         27.79
     1.388493          0.01
     1.387332          3.02
     1.384342          0.84
     1.384169          1.04
     1.383425          3.64
     1.382070          5.69
     1.380074          2.32
     1.378934          0.01
     1.353293          0.64
     1.349498         72.53
     1.347586         13.36
     1.347432         52.13
     1.345387         96.50
     1.345143         28.38
     1.343982         38.86
     1.342596          1.35
     1.342063          0.14
     1.341583         57.69
     1.341060         11.98
     1.340202         39.41
     1.339669         22.00
     1.337959          4.28
     1.337506         31.80
     1.324576         65.45
     1.320372         51.20
     1.316734          7.90
     1.313649         42.24
     1.294119          6.36
     1.291657         15.34
     1.288251          8.51
     1.287295          3.14
     1.285926         34.19
     1.285713         38.38
     1.283563         72.43
     1.282307          2.64
     1.282146         11.15
     1.279435          0.15
     1.241903          0.02
     1.240111          4.66
     1.237974          9.91
     1.237592         37.33
     1.237100          7.53
     1.235605         14.91
     1.235405          4.56
     1.234102         33.86
     1.233959          1.32
     1.232905         11.66
     1.232884          0.02
     1.231557          1.30
     1.230311          6.18
     1.229708         12.15
     1.228406          0.16
     1.227625         33.15
     1.226355         15.99
     1.214365          9.77
     1.213128          0.33
     1.190280         28.94
     1.189068          1.59
     1.187379         21.08
     1.187211         25.44
     1.186041          0.16
     1.185324         28.23
     1.184401         26.19
     1.184390         37.94
     1.184334          0.79
     1.182263          0.01
     1.181349          0.63
     1.180817         25.86
     1.174609          2.43
     1.173246          5.57
     1.172188          0.01
     1.171225          9.19
     1.170477          0.13
     1.168903          1.61
     1.168762          6.88
     1.168527         17.15
     1.167419         15.08
     1.167109          0.01
     1.166891          1.58
     1.166679          4.62
     1.164455         13.29
     1.153987          0.13
     1.152694          0.01
     1.150068          2.62
     1.149712          4.28
     1.149688          0.04
     1.149219          2.25
     1.148793          0.01
     1.148510          3.90
     1.148017          6.10
     1.147284          0.85
     1.146665          1.66
     1.146464          2.43
     1.145035          0.53
     1.144354          2.22
     1.142364          5.31
     1.140481         13.09
     1.132963         30.08
     1.126102          8.37
     1.111462          0.38
     1.110586          3.06
     1.109866          6.03
     1.109721         15.87
     1.109155          0.43
     1.106929          2.09
     1.106630          2.85
     1.106361          0.78
     1.106190          9.90
     1.105586         10.59
     1.104071          6.71
     1.103147         13.36
     1.102050          0.25
     1.098080          0.01
     1.096966          0.46
     1.096381         10.44
     1.095530          0.32
     1.094702          3.11
     1.094604          6.53
     1.094056          0.00
     1.092528          1.54
     1.091767          2.93
     1.091593          0.22
     1.091381          0.17
     1.090160         15.10
     1.089771          0.58
     1.077224          2.37
     1.076668         15.65
     1.075124          1.29
     1.074684         18.57
     1.074520          8.24
     1.074396          6.35
     1.073988         16.80
     1.073140          1.83
     1.072423          0.00
     1.072406          6.61
     1.072312          1.25
     1.072272          0.06
     1.071010          0.10
     1.070724          1.06
     1.070045          0.57
     1.068649          2.42
     1.061666          3.13
     1.061114          4.98
     1.048100          0.05
     1.047855         18.91
     1.044223          4.48
     1.042661          0.35
     1.034846          0.03
     1.032056          1.07
     1.030917          0.11
     1.030627          4.81
     1.027021         17.13
     1.020660          0.06
     1.020609          0.03
     1.019715          0.10
     1.019553          2.31
     1.018387          3.83
     1.017983          0.24
     1.017895         18.28
     1.017745         12.45
     1.017283          1.95
     1.016920          4.00
     1.016766         18.06
     1.016059          6.00
     1.015882         11.24
     1.015534          5.03
     1.015514          5.15
     1.015394         11.83
     1.014544          1.47
     1.014169          2.43
     1.013927          5.78
     1.013828          0.48
     1.013720          0.34
     1.013236          5.83
     1.013151          0.56
     1.013136          0.01
     1.013101          0.33
     1.012384          6.55
     1.010913          1.84
     1.010897          8.04
     1.010052          1.92
     1.008070          4.94
##############################################################################
###                            Comments                                    ###
##############################################################################
###   Diffraction pattern calculated by Match!. 
###   I/Ic calculated by Match!. 
###   Space group has been derived from given symmetry operations. 
##############################################################################


