##############################################################################
###               Crystal structure data exported by Match!                ###
##############################################################################
###                           Data published by:                           ###
###                                                                        ###
###               COD (Crystallography Open Database)
##############################################################################
data_4313805
_citation_journal_full    'Inorganic Chemistry'
_citation_journal_volume  '42'
_citation_page_first  '4160'
_citation_page_last   '4164'
_citation_year  '2003'
_citation_title  'A Hybrid Metalloarsenate 3D Framework-1D Interrupted Metal Oxide'
loop_
_publ_author_name
  'Robert W. Hughes'
  'Lee A. Gerrard'
  'Daniel J. Price'
  'Mark T. Weller'
_chemical_formula_sum  'As1.33 Co2.22 H1.57 O6.33'
_symmetry_space_group_name_H-M 'P 63 m c'
_space_group_IT_number 186
_space_group_crystal_system 'hexagonal'
loop_
_symmetry_equiv_pos_as_xyz
   'x, y, z'
   'x-y, x, z+0.5'
   '-y, x-y, z'
   '-x, -y, z+0.5'
   '-x+y, -x, z'
   'y, -x+y, z+0.5'
   '-x+y, y, z'
   'x, x-y, z'
   '-y, -x, z'
   'y, x, z+0.5'
   'x-y, -y, z+0.5'
   '-x, -x+y, z+0.5'
_cell_length_a       12.82790
_cell_length_b       12.82790
_cell_length_c        5.09190
_cell_angle_alpha    90.0000
_cell_angle_beta     90.0000
_cell_angle_gamma   120.0000
_cell_formula_units_Z 6
loop_
_atom_site_label
_atom_site_fract_x
_atom_site_fract_y
_atom_site_fract_z
_atom_site_occupancy
_atom_site_B_iso_or_equiv
as      0.699   0.850   0.569    1.00000    0.789
as      0.667   0.333   0.786    1.00000    0.655
co      1.000   1.000   0.873    0.65000    1.800
co      0.650   0.574   0.543    1.00000    0.858
o      0.848   0.924   0.621    1.00000    1.973
o      0.659   0.724   0.392    1.00000    1.104
o      0.618   0.809   0.848    1.00000    1.064
o      0.525   0.475   0.233    1.00000    0.892
o      0.596   0.404   0.686    1.00000    2.052
o      0.333   0.667   0.616    1.00000    3.947
_cell_measurement_wavelength    1.541874
_cell_measurement_radiation   'x-rays'
_cell_measurement_temperature    293.000000
_exptl_crystal_density_diffrn    4.578000
_exptl_crystal_colour            'purple'
loop_
_pd_peak_d_spacing
_pd_peak_intensity
    11.109287          3.95
     6.413950        177.10
     5.554644          0.28
     4.628844        162.83
     4.198916          6.39
     3.987986          0.00
     3.753467        415.02
     3.703096        178.57
     3.239525       1000.00
     3.206975        293.86
     3.081162          0.52
     2.994856         47.65
     2.777322        285.29
     2.713616          0.00
     2.636113        112.94
     2.548645        104.14
     2.545950        132.26
     2.481616          9.49
     2.438214        625.05
     2.424245         57.31
     2.366344        217.19
     2.314422          0.74
     2.279095         77.47
     2.221857         12.68
     2.188834         17.27
     2.177026         46.25
     2.137983          0.07
     2.099458          9.59
     2.097951         36.76
     2.036429          9.68
     1.995287          0.04
     1.993993         10.81
     1.971267          0.00
     1.962629          4.57
     1.940948         68.31
     1.876733        142.33
     1.857749        141.20
     1.851548         14.52
     1.826356          4.86
     1.801211        222.57
     1.778910          5.60
     1.755649          6.39
     1.740078         40.94
     1.719118         18.36
     1.694150         48.95
     1.679373        148.35
     1.677831          7.35
     1.674023          9.75
     1.640821          0.00
     1.637259         64.27
     1.623212          3.98
     1.619763         25.47
     1.607510         24.15
     1.603487        183.59
     1.587041          5.97
     1.573601        124.75
     1.570458         11.83
     1.542948          3.32
     1.540581          0.02
     1.529444          0.00
     1.515152         43.95
     1.500152          0.00
     1.497428          6.91
     1.486659         16.67
     1.484008         12.56
     1.474568         19.92
     1.471461         46.18
     1.458215        101.11
     1.448264        162.77
     1.422398          2.87
     1.413619          2.06
     1.412698         23.87
     1.410423         53.72
     1.399639          0.35
     1.390394          1.03
     1.388661         16.90
     1.369951          6.94
     1.357215          9.68
     1.356808         69.49
     1.349582         44.65
     1.348781         17.82
     1.346800         11.86
     1.339732         58.17
     1.329329          0.00
     1.319913          0.39
     1.318056          3.16
     1.311429         87.98
     1.300244          1.32
     1.292822         29.01
     1.282790         13.68
     1.274323         12.23
     1.273985          0.30
     1.272975         21.14
     1.264699          7.29
     1.259818         12.32
     1.251156          4.82
     1.249892          0.42
     1.248621          4.46
     1.243923          0.00
     1.243296         15.56
     1.241744          9.66
     1.240808          3.03
     1.236198          9.27
     1.234365          0.01
     1.228010         24.12
     1.226515         30.85
     1.219107          6.94
     1.218222          2.25
     1.213857          7.19
     1.212123          4.57
     1.203832          1.67
     1.199620          5.16
     1.199057          2.19
     1.197665         19.48
     1.183172         12.53
     1.179173          3.12
     1.176518          7.45
     1.165591          0.00
     1.164570          8.56
     1.159228          6.94
     1.157970          5.69
     1.157211         24.15
     1.151979          0.28
     1.145590          9.45
     1.140746          0.96
     1.139547         27.01
     1.138824         20.75
     1.135256         39.63
     1.127977          0.08
     1.127042         13.16
     1.123584          5.63
     1.121977          0.07
     1.111815          1.20
     1.110929          5.19
     1.110705          3.24
     1.104535          2.94
     1.101279          3.96
     1.094631         23.75
     1.094417          6.71
     1.093776          1.01
     1.090191          1.31
     1.088513         13.47
     1.085396          7.18
     1.079842         11.62
     1.074776         21.87
     1.073168          0.79
     1.070181          1.40
     1.068992          0.86
     1.064077          2.51
     1.059997         51.01
     1.059035         12.91
     1.054447          0.21
     1.049729          6.52
     1.049540          4.99
     1.048975          3.93
     1.046185          0.00
     1.044330          4.81
     1.041577         23.78
     1.035222          7.17
     1.032540          7.64
     1.032181          5.36
     1.031293          0.38
     1.028109         18.71
     1.027054         24.04
     1.023384          0.00
     1.019070          0.69
     1.018215          5.88
     1.017698          6.65
     1.014128          1.13
     1.009935          0.08
     1.006778          0.06
     1.006445          5.61
##############################################################################
###                            Comments                                    ###
##############################################################################
###   Diffraction pattern calculated by Match!. 
###   I/Ic calculated by Match!. 
##############################################################################


