##############################################################################
###               Crystal structure data exported by Match!                ###
##############################################################################
###                           Data published by:                           ###
###                                                                        ###
###               COD (Crystallography Open Database)
##############################################################################
data_9007689
_citation_journal_full    'Acta Crystallographica, Section B'
_citation_journal_volume  '51(6)'
_citation_page_first  '929'
_citation_page_last   '939'
_citation_year  '1995'
_citation_title  'Electron density and optical anisotropy in rhombohedral carbonates.III. Synchrotron X-ray studies of CaCO3, MgCO3 and MnCO3'
loop_
_publ_author_name
  'Maslen E. N.'
  'Streltsov V. A.'
  'Streltsova N. R.'
  'Ishizawa N.'
_chemical_formula_sum  'C Ca O3'
_chemical_name_mineral  'Calcite'
_symmetry_space_group_name_H-M 'R -3 c'
_space_group_IT_number 167
_space_group_crystal_system 'trigonal (hexagonal axes)'
loop_
_symmetry_equiv_pos_as_xyz
   'x, y, z'
   'x+0.66667, y+0.33333, z+0.33333'
   'x+0.33333, y+0.66667, z+0.66667'
   '-y, x-y, z'
   '-y+0.66667, x-y+0.33333, z+0.33333'
   '-y+0.33333, x-y+0.66667, z+0.66667'
   '-x+y, -x, z'
   '-x+y+0.66667, -x+0.33333, z+0.33333'
   '-x+y+0.33333, -x+0.66667, z+0.66667'
   'x-y, -y, -z+0.5'
   'x-y+0.66667, -y+0.33333, -z+0.83333'
   'x-y+0.33333, -y+0.66667, -z+0.16667'
   '-x, -x+y, -z+0.5'
   '-x+0.66667, -x+y+0.33333, -z+0.83333'
   '-x+0.33333, -x+y+0.66667, -z+0.16667'
   'y, x, -z+0.5'
   'y+0.66667, x+0.33333, -z+0.83333'
   'y+0.33333, x+0.66667, -z+0.16667'
   '-x, -y, -z'
   '-x+0.66667, -y+0.33333, -z+0.33333'
   '-x+0.33333, -y+0.66667, -z+0.66667'
   'y, -x+y, -z'
   'y+0.66667, -x+y+0.33333, -z+0.33333'
   'y+0.33333, -x+y+0.66667, -z+0.66667'
   'x-y, x, -z'
   'x-y+0.66667, x+0.33333, -z+0.33333'
   'x-y+0.33333, x+0.66667, -z+0.66667'
   '-x+y, y, z+0.5'
   '-x+y+0.66667, y+0.33333, z+0.83333'
   '-x+y+0.33333, y+0.66667, z+0.16667'
   'x, x-y, z+0.5'
   'x+0.66667, x-y+0.33333, z+0.83333'
   'x+0.33333, x-y+0.66667, z+0.16667'
   '-y, -x, z+0.5'
   '-y+0.66667, -x+0.33333, z+0.83333'
   '-y+0.33333, -x+0.66667, z+0.16667'
_cell_length_a        4.98800
_cell_length_b        4.98800
_cell_length_c       17.06800
_cell_angle_alpha    90.0000
_cell_angle_beta     90.0000
_cell_angle_gamma   120.0000
loop_
_atom_site_label
_atom_site_fract_x
_atom_site_fract_y
_atom_site_fract_z
_atom_site_occupancy
_atom_site_B_iso_or_equiv
ca      0.000   0.000   0.000    1.00000    0.765
c      0.000   0.000   0.250    1.00000    0.723
o      0.257   0.000   0.250    1.00000    1.407
_cell_measurement_wavelength    1.541874
_cell_measurement_radiation   'x-rays'
_exptl_crystal_density_diffrn    2.712000
loop_
_pd_peak_d_spacing
_pd_peak_intensity
     3.854115         84.39
     3.035697       1000.00
     2.844667         20.63
     2.494000        144.36
     2.284171        189.22
     2.093848        147.63
     1.927057         66.33
     1.912908        200.27
     1.875319        207.98
     1.625287         34.47
     1.603622         99.66
     1.587383         10.02
     1.524888         58.91
     1.517849         27.30
     1.509584         28.47
     1.472901         20.84
     1.439912         69.31
     1.422333         38.80
     1.356646         13.50
     1.339143         23.88
     1.296599         31.42
     1.284705          6.45
     1.247000         12.81
     1.235530         23.65
     1.218084          0.26
     1.195138          0.05
     1.186444          6.37
     1.179822         26.58
     1.173310          3.63
     1.153474         49.95
     1.142085         24.60
     1.130474          0.04
     1.124741          5.13
     1.075284          0.03
     1.071389          0.02
     1.061688          9.47
     1.046924         31.60
     1.044638         36.00
     1.041932          0.13
     1.035639         16.66
     1.035213          4.32
     1.023152          3.44
     1.011899         35.45
##############################################################################
###                            Comments                                    ###
##############################################################################
###   Diffraction pattern calculated by Match!. 
###   I/Ic calculated by Match!. 
##############################################################################


