##############################################################################
###               Crystal structure data exported by Match!                ###
##############################################################################
###                           Data published by:                           ###
###                                                                        ###
###               COD (Crystallography Open Database)
##############################################################################
data_1536928
_citation_journal_full    'Angew. Chem. Int. ed.'
_citation_journal_volume  '43'
_citation_page_first  '4933'
_citation_page_last   '4937'
_citation_year  '2004'
_citation_title  'Crystal Structure Determination of Zeolite Nu-6(2) and Its LayeredPrecursor Nu-6(1)'
loop_
_publ_author_name
  'Zanardi S.'
  'Fornes V.'
  'Alberti A.'
  'Brunelli M.'
  'Corma A.'
  'Cruciani G.'
_chemical_formula_sum  'O2 Si'
_chemical_name_common  'Silica'
_symmetry_space_group_name_H-M 'P 1 21/a 1'
_space_group_IT_number 14
_space_group_crystal_system 'monoclinic'
loop_
_symmetry_equiv_pos_as_xyz
   'x, y, z'
   '-x+0.5, y+0.5, -z'
   '-x, -y, -z'
   'x+0.5, -y+0.5, z'
_cell_length_a       17.25690
_cell_length_b        4.98810
_cell_length_c       13.84820
_cell_angle_alpha    90.0000
_cell_angle_beta    106.0910
_cell_angle_gamma    90.0000
_cell_formula_units_Z 24
loop_
_atom_site_label
_atom_site_fract_x
_atom_site_fract_y
_atom_site_fract_z
_atom_site_occupancy
_atom_site_B_iso_or_equiv
o      0.346   0.140   0.424    1.00000    1.000
o      0.640   0.855   0.385    1.00000    1.000
o      0.417   0.925   -0.207    1.00000    1.000
o      0.722   0.264   0.495    1.00000    1.000
o      0.364   0.433   -0.229    1.00000    1.000
o      0.374   0.625   0.117    1.00000    1.000
o      0.361   0.709   -0.069    1.00000    1.000
o      0.248   0.885   0.018    1.00000    1.000
si      0.350   0.729   -0.191    1.00000    1.000
si      0.309   0.642   0.011    1.00000    1.000
si      0.329   0.234   0.304    1.00000    1.000
o      0.385   0.482   0.298    1.00000    1.000
si      0.697   0.952   0.490    1.00000    1.000
o      0.501   0.726   0.260    1.00000    1.000
o      0.364   -0.011   0.253    1.00000    1.000
o      0.239   0.315   0.250    1.00000    1.000
si      0.592   0.796   0.269    1.00000    1.000
si      0.407   0.725   0.232    1.00000    1.000
_cell_measurement_wavelength    1.541874
_cell_measurement_radiation   'x-rays'
_exptl_crystal_density_diffrn    2.090000
loop_
_pd_peak_d_spacing
_pd_peak_intensity
    13.305665          0.37
     8.290411        760.39
     8.118363         10.46
     6.652832        411.81
     6.296520          1.52
     6.075379        177.06
     4.776634          1.39
     4.670679          4.11
     4.614410         25.28
     4.603186        372.22
     4.458352          0.76
     4.435222          0.04
     4.385734         72.80
     4.311467          0.54
     4.274106         22.94
     4.249982       1000.00
     4.145205        282.93
     4.059182         99.89
     4.035773          0.40
     3.990919          0.21
     3.909885          5.19
     3.855180          0.32
     3.751928        231.90
     3.741166          0.95
     3.703007          1.89
     3.678639          8.21
     3.560489          0.01
     3.525731          1.69
     3.525394          0.49
     3.433541        119.99
     3.407720         43.85
     3.387857          2.29
     3.382847         17.22
     3.326416        355.93
     3.324099        313.66
     3.314479         14.79
     3.261865         57.90
     3.188061          0.28
     3.148425          6.85
     3.148260        146.68
     3.144253         10.03
     3.128025          8.81
     3.037690         46.60
     3.006968          3.40
     2.960603         15.79
     2.897959         11.90
     2.878941          0.08
     2.868661          1.37
     2.846844          4.59
     2.838062          3.03
     2.837398          0.31
     2.828264          4.93
     2.828144          0.00
     2.788632          3.38
     2.767485          1.78
     2.766763          0.11
     2.763470          4.22
     2.761573          2.74
     2.740488          0.66
     2.706121          0.02
     2.680426          2.28
     2.662329         22.19
     2.661133          0.03
     2.632914          0.01
     2.632745         66.95
     2.613750          6.69
     2.594454          3.61
     2.589280          0.80
     2.587715         57.30
     2.567739          1.97
     2.494050         41.96
     2.492087         10.68
     2.486752         72.21
     2.472500          4.58
     2.466305         33.56
     2.460219          0.98
     2.451358          3.06
     2.443115          0.00
     2.419492         68.62
     2.417289          0.10
     2.416502          9.08
     2.407885          0.03
     2.407279          8.94
     2.388317          0.25
     2.384083          1.44
     2.380623          0.06
     2.378625         24.91
     2.364621          0.46
     2.361118          6.63
     2.351243          0.07
     2.347900         12.87
     2.344228         36.03
     2.335340         26.62
     2.333226          8.27
     2.318773          4.41
     2.307916          0.03
     2.307205          0.68
     2.301593          1.57
     2.298107          4.16
     2.284491          0.53
     2.283006          6.65
     2.282055          5.50
     2.273588          2.61
     2.273310          6.87
     2.254301          0.27
     2.249595          4.44
     2.230395          4.06
     2.229341          2.37
     2.229176          3.13
     2.217611          1.93
     2.204121          3.63
     2.200687          7.71
     2.199599          2.24
     2.194230          0.27
     2.192867          2.28
     2.184673          3.09
     2.176620          0.16
     2.173913          1.43
     2.158864          2.97
     2.155734          1.61
     2.149204         26.22
     2.140099          1.27
     2.139693          4.36
     2.137053          0.75
     2.133704          0.46
     2.126807          2.01
     2.124991         17.60
     2.123707          1.16
     2.118686          0.10
     2.116075          0.23
     2.113445          2.91
     2.098840          1.36
     2.094580          0.76
     2.089850          4.32
     2.080429          0.72
     2.079861          0.26
     2.075708          4.17
     2.072603          6.68
     2.064331          2.08
     2.054255          0.06
     2.047890          3.44
     2.042745          0.45
     2.036051          0.64
     2.035189          0.39
     2.034223          5.44
     2.029591          4.74
     2.026376          0.26
     2.025126          3.32
     2.021436          4.13
     2.021196          0.56
     2.017886          5.70
     2.007871         52.61
     2.003343         13.80
     2.001359          1.30
     1.995459          4.91
     1.993240         26.21
     1.992732          5.72
     1.985268          0.19
     1.978841          2.16
     1.975862          0.22
     1.966727         17.79
     1.966687          1.84
     1.964601          2.51
     1.954943          4.65
     1.952741          0.56
     1.948033          1.93
     1.943975          0.84
     1.943207          0.61
     1.943139          1.97
     1.935464          2.68
     1.934561          0.22
     1.927590         27.44
     1.924821          1.72
     1.918500          7.59
     1.918287          2.65
     1.913957          4.13
     1.912153          0.59
     1.902804          0.24
     1.900809          0.01
     1.884370          2.90
     1.882166          0.79
     1.879930          0.10
     1.876381          1.17
     1.875964          0.02
     1.870583          0.15
     1.862631          8.33
     1.857429          0.17
     1.852493          0.04
     1.851503          0.38
     1.851150          7.90
     1.847267          0.01
     1.839319         20.87
     1.836992         36.13
     1.835140          2.04
     1.834871          0.96
     1.833956          2.85
     1.829612          0.85
     1.827514          0.14
     1.825896          0.05
     1.819762          0.14
     1.819118          0.00
     1.816643          0.13
     1.811283         13.85
     1.796283          1.84
     1.789756          0.03
     1.789044         10.11
     1.785460          1.59
     1.784501          0.23
     1.780245          0.13
     1.778256          0.26
     1.776214         23.09
     1.773837          1.52
     1.773726          3.70
     1.772829          0.93
     1.767886          6.73
     1.763646          0.45
     1.762865         13.66
     1.762778          3.48
     1.762697         14.20
     1.762206          1.62
     1.750316          3.42
     1.750086          0.19
     1.748594          0.44
     1.740529          0.70
     1.728409          2.76
     1.728206          1.01
     1.727348         25.88
     1.725733          0.83
     1.725558          4.00
     1.724961          0.63
     1.722432          2.03
     1.719571          1.19
     1.717525          6.50
     1.717020          0.03
     1.716771         19.12
     1.714423          0.39
     1.710839          0.10
     1.709015          0.04
     1.705159          0.18
     1.704343          0.06
     1.703860          0.04
     1.696295          0.23
     1.693929          2.58
     1.691424          2.37
     1.686418          2.71
     1.683900          1.56
     1.681663         13.25
     1.676661          0.58
     1.672385          0.02
     1.668946          5.94
     1.663208          7.48
     1.662050         16.69
     1.661977          2.60
     1.661523          0.74
     1.659853          5.66
     1.659582          4.91
     1.658082          0.42
     1.657239          2.40
     1.654403          0.32
     1.651394          2.64
     1.649868          0.35
     1.647348          0.27
     1.646531          0.00
     1.639919          6.96
     1.639394          9.59
     1.638683          0.14
     1.636229          7.35
     1.634904          0.03
     1.630932         16.29
     1.630738          0.02
     1.630235          2.41
     1.628888          5.64
     1.624130          0.00
     1.624032          0.70
     1.623673          1.90
     1.623526          8.10
     1.623316          0.19
     1.622933          0.07
     1.616227          0.29
     1.616005          0.20
     1.613555          5.55
     1.613488          0.00
     1.613085          0.63
     1.612797         11.13
     1.611172          0.00
     1.607595         13.72
     1.605972          2.61
     1.605874          1.58
     1.603725          0.21
     1.596947          0.93
     1.596652          4.84
     1.596529          1.53
     1.596038          8.97
     1.595207          0.86
     1.594030          0.11
     1.593539          0.15
     1.592211          1.15
     1.592099          1.21
     1.587570          4.51
     1.577810          0.39
     1.577251          3.21
     1.576290          0.38
     1.576258          0.61
     1.575949          0.90
     1.574213          7.05
     1.574130          0.17
     1.573431          3.04
     1.572127          7.92
     1.570721          0.00
     1.566247          1.05
     1.564305          0.06
     1.564013          1.14
     1.563811          0.08
     1.563551          0.17
     1.562030          0.02
     1.560929          1.02
     1.557887         18.68
     1.557885          2.27
     1.556893          3.67
     1.551337          4.54
     1.549969          0.01
     1.549830          2.03
     1.548741          0.16
     1.547631          1.20
     1.544311          0.88
     1.543937          0.43
     1.543185          1.27
     1.538624          0.00
     1.538137          2.40
     1.536488          0.23
     1.536226          6.31
     1.534395         10.82
     1.533450          1.07
     1.533241          2.34
     1.533158          0.25
     1.530612          0.00
     1.521231          3.15
     1.520118          0.18
     1.518845          0.70
     1.517483          0.10
     1.516714         23.51
     1.515123          0.12
     1.513445          0.53
     1.513053          0.14
     1.511794          0.29
     1.510328          2.91
     1.510259          0.44
     1.508903          0.00
     1.506649          0.59
     1.506526         10.48
     1.504022          4.31
     1.503835          0.84
     1.503484          1.14
     1.503129          1.04
     1.501155          1.66
     1.498198         14.80
     1.497917          0.30
     1.497819          1.38
     1.496471          0.97
     1.494747          0.89
     1.494654          0.34
     1.493647          0.87
     1.490510          1.70
     1.487255          0.47
     1.486335          3.31
     1.486117          0.15
     1.485281          1.95
     1.484958          2.00
     1.483021          1.72
     1.481990         19.83
     1.481861          2.80
     1.481320          3.41
     1.480302          0.35
     1.480157          0.00
     1.480036          0.00
     1.478407          0.15
     1.477114          0.15
     1.476407          0.55
     1.474206          0.31
     1.470256          0.99
     1.470251          2.59
     1.469710          0.01
     1.467059          0.49
     1.466576          0.04
     1.465751          3.09
     1.465239          0.81
     1.465210          2.27
     1.463272          2.96
     1.461911          0.07
     1.458509          0.22
     1.457309          0.14
     1.452980          0.74
     1.451707          0.91
     1.450067          1.35
     1.448980          8.95
     1.448250          1.26
     1.445278          0.14
     1.442905          0.21
     1.439471          5.03
     1.438532         21.95
     1.438394          0.39
     1.438090          0.05
     1.437914          0.98
     1.437156          2.04
     1.435757          1.42
     1.434331         10.16
     1.433340          0.14
     1.432578          0.01
     1.428643          0.00
     1.425153         10.03
     1.424723          0.01
     1.424702          0.44
     1.424541          3.78
     1.424250          3.53
     1.423422          1.54
     1.422769          0.05
     1.421773          0.14
     1.421728          1.19
     1.420135          0.12
     1.419031         10.05
     1.418699          4.83
     1.417459         21.86
     1.417083          0.65
     1.416661          0.90
     1.415234          1.40
     1.414605          3.09
     1.414271          0.28
     1.414132          9.74
     1.414072          0.32
     1.413685          1.05
     1.412936          4.93
     1.410088          1.06
     1.407621          4.33
     1.407448          0.06
     1.407162          6.27
     1.406082          0.00
     1.402622          0.36
     1.401096          0.20
     1.399079          0.83
     1.396597          3.70
     1.395843          1.12
     1.395650          2.75
     1.395363          0.75
     1.394501          0.69
     1.394316          5.52
     1.393875          0.24
     1.393490          2.20
     1.392912          0.94
     1.392592          0.04
     1.390367          0.10
     1.389894          2.51
     1.389660          0.20
     1.387911          1.54
     1.383743          0.40
     1.383382          0.02
     1.383115          0.19
     1.382717          0.70
     1.382696          0.46
     1.382487          1.86
     1.381735          1.32
     1.381495          1.89
     1.381147          4.72
     1.380980          0.22
     1.380787          0.07
     1.378473          2.37
     1.377125          1.52
     1.377029          3.94
     1.376190          7.05
     1.374722         18.74
     1.374094          2.90
     1.373421          4.61
     1.373062          0.00
     1.372248          0.91
     1.370244         15.91
     1.368781          0.03
     1.363327          1.88
     1.361496          0.12
     1.360889          0.07
     1.360724          0.89
     1.360461          2.27
     1.359345          0.15
     1.357556          0.01
     1.354532          2.94
     1.354062          2.93
     1.353328          1.78
     1.353061          6.45
     1.349061          0.06
     1.348893          3.68
     1.347795          0.20
     1.345258          1.29
     1.344205          3.56
     1.343979          0.03
     1.343005         12.75
     1.342777          2.81
     1.341978          1.42
     1.340213         15.53
     1.339312          4.42
     1.338478          0.00
     1.338102          6.77
##############################################################################
###                            Comments                                    ###
##############################################################################
###   Diffraction pattern calculated by Match!. 
###   I/Ic calculated by Match!. 
##############################################################################


