##############################################################################
###               Crystal structure data exported by Match!                ###
##############################################################################
###                           Data published by:                           ###
###                                                                        ###
###               COD (Crystallography Open Database)
##############################################################################
data_9003079
_citation_journal_full    'American Mineralogist'
_citation_journal_volume  '88'
_citation_page_first  '1423'
_citation_page_last   '1427'
_citation_year  '2003'
_citation_title  'Variation of hydrogen bonded O...O distances in goethite at high pressureSample at P = 6.3 GPa'
loop_
_publ_author_name
  'Nagai T.'
  'Kagi H.'
  'Yamanaka T.'
_chemical_formula_sum  'Fe H O2'
_chemical_name_mineral  'Goethite'
_symmetry_space_group_name_H-M 'P b n m'
_space_group_IT_number 62
_space_group_crystal_system 'orthorhombic'
loop_
_symmetry_equiv_pos_as_xyz
   'x, y, z'
   '-x, -y, z+0.5'
   'x+0.5, -y+0.5, -z'
   '-x+0.5, y+0.5, -z+0.5'
   '-x, -y, -z'
   'x, y, -z+0.5'
   '-x+0.5, y+0.5, z'
   'x+0.5, -y+0.5, z+0.5'
_cell_length_a        4.50860
_cell_length_b        9.87590
_cell_length_c        2.99100
_cell_angle_alpha    90.0000
_cell_angle_beta     90.0000
_cell_angle_gamma    90.0000
loop_
_atom_site_label
_atom_site_fract_x
_atom_site_fract_y
_atom_site_fract_z
_atom_site_occupancy
_atom_site_B_iso_or_equiv
fe      -0.047   0.145   0.250    1.00000    1.000
o      0.295   -0.196   0.250    1.00000    1.000
o      -0.203   -0.054   0.250    1.00000    1.000
_cell_measurement_wavelength    1.541874
_cell_measurement_radiation   'x-rays'
_cell_measurement_pressure       6300000.000000
_exptl_crystal_density_diffrn    4.381000
loop_
_pd_peak_d_spacing
_pd_peak_intensity
     4.937950        124.51
     4.101414       1000.00
     3.329523        113.41
     2.658685        435.48
     2.558286        246.53
     2.492415         51.21
     2.468975        165.54
     2.416642        707.42
     2.254300         30.44
     2.225043         91.98
     2.197771         26.38
     2.165533        160.32
     2.050707         13.72
     1.987120         41.59
     1.904064         58.66
     1.859989          6.42
     1.809182          9.45
     1.771058         99.80
     1.754058         23.11
     1.691347        350.38
     1.664762         96.18
     1.645983         34.03
     1.579491         72.63
     1.548022        228.70
     1.546168          4.79
     1.495500        101.87
     1.485762          6.85
     1.485603         40.87
     1.454624         28.34
     1.442047        103.81
     1.437752         44.76
     1.431298          5.04
     1.405012         56.92
     1.373503          0.02
     1.367138         43.02
     1.364205         10.31
     1.346459         54.36
     1.342879         36.75
     1.330634         18.26
     1.330520          0.06
     1.329343         18.90
     1.303443         66.48
     1.295816         18.05
     1.283744          0.53
     1.279143         29.39
     1.246208          9.44
     1.243405         19.34
     1.236403          7.24
     1.234488          0.33
     1.230576         24.76
     1.227787          0.92
     1.214767          5.84
     1.208321          3.32
     1.196021          0.28
     1.195938          0.39
     1.190662          0.22
     1.179677         31.69
     1.165491          2.08
     1.152674          2.61
     1.141114         22.09
     1.127150          4.28
     1.119880         26.94
     1.112522         35.07
     1.110526         10.75
     1.110460          8.54
     1.109841          8.67
     1.106864         13.14
     1.106232          1.27
     1.098885          0.28
     1.082766         13.89
     1.074944          2.15
     1.066374          4.31
     1.066198          3.97
     1.054018          3.74
     1.053962         19.51
     1.048777          4.77
     1.040518         19.05
     1.036459         24.28
     1.031474          2.89
     1.028611          8.50
     1.025353          1.79
     1.018108         20.78
     1.009046         25.36
##############################################################################
###                            Comments                                    ###
##############################################################################
###   Diffraction pattern calculated by Match!. 
###   I/Ic calculated by Match!. 
###   Space group has been derived from given symmetry operations. 
##############################################################################


