##############################################################################
###               Crystal structure data exported by Match!                ###
##############################################################################
###                           Data published by:                           ###
###                                                                        ###
###               COD (Crystallography Open Database)
##############################################################################
data_9007161
_citation_journal_full    'Physics and Chemistry of Minerals'
_citation_journal_volume  '30'
_citation_page_first  '167'
_citation_page_last   '176'
_citation_year  '2003'
_citation_title  'Compression mechanisms of coesiteSample: X1air, in air, P = 0.0001 GPa'
loop_
_publ_author_name
  'Angel R. J.'
  'Shaw C. S. J.'
  'Gibbs G. V.'
_chemical_formula_sum  'O2 Si'
_chemical_name_mineral  'Coesite'
_symmetry_space_group_name_H-M 'C 1 2/c 1'
_space_group_IT_number 15
_space_group_crystal_system 'monoclinic'
loop_
_symmetry_equiv_pos_as_xyz
   'x, y, z'
   'x+0.5, y+0.5, z'
   '-x, y, -z+0.5'
   '-x+0.5, y+0.5, -z+0.5'
   '-x, -y, -z'
   '-x+0.5, -y+0.5, -z'
   'x, -y, z+0.5'
   'x+0.5, -y+0.5, z+0.5'
_cell_length_a        7.13660
_cell_length_b       12.37230
_cell_length_c        7.17490
_cell_angle_alpha    90.0000
_cell_angle_beta    120.3300
_cell_angle_gamma    90.0000
loop_
_atom_site_label
_atom_site_fract_x
_atom_site_fract_y
_atom_site_fract_z
_atom_site_occupancy
_atom_site_B_iso_or_equiv
si      0.140   0.108   0.072    1.00000    0.531
si      0.507   0.158   0.541    1.00000    0.547
o      0.000   0.000   0.000    1.00000    0.840
o      0.500   0.116   0.750    1.00000    0.784
o      0.266   0.123   0.940    1.00000    0.867
o      0.311   0.104   0.328    1.00000    0.923
o      0.017   0.212   0.479    1.00000    0.840
_cell_measurement_wavelength    1.541874
_cell_measurement_radiation   'x-rays'
_cell_measurement_pressure       100.000000
_exptl_crystal_density_diffrn    2.919000
loop_
_pd_peak_d_spacing
_pd_peak_intensity
     6.186150         58.37
     5.548127         10.60
     5.514198          5.38
     4.376646         49.68
     3.445519         62.70
     3.435043        137.82
     3.426945        402.47
     3.421175        699.76
     3.103614        999.88
     3.096440        854.82
     3.093075       1000.00
     3.090856        847.07
     3.079911        169.99
     2.774063         21.76
     2.768938         76.34
     2.767132         62.63
     2.757099        144.32
     2.706689         91.53
     2.694840        311.38
     2.337186         85.68
     2.305523         35.68
     2.299165          8.58
     2.298553          2.75
     2.296122         26.92
     2.293335         63.81
     2.291889         41.22
     2.195981         20.93
     2.190851         35.46
     2.188323         23.59
     2.182465         60.11
     2.179189          1.48
     2.062050          0.12
     2.040735          4.59
     2.039569         21.28
     2.036910          0.80
     2.035164         26.83
     2.031846         89.81
     2.031116          7.87
     2.030112          0.35
     2.025570         27.66
     1.958148          2.06
     1.956445          0.63
     1.870672          8.65
     1.860259         16.41
     1.849376         74.67
     1.838066         98.14
     1.793719        177.75
     1.785360        108.29
     1.784080          1.74
     1.779992          0.20
     1.722759          0.87
     1.717522          9.75
     1.717021         32.10
     1.716303         44.37
     1.714215         33.41
     1.713473        114.33
     1.710587         32.20
     1.706938          7.99
     1.704548          6.54
     1.702714          8.32
     1.700148          0.51
     1.699901         19.85
     1.698917         63.62
     1.697787          2.43
     1.697639        124.46
     1.697200          3.08
     1.692174          7.08
     1.655719        169.35
     1.648486          6.82
     1.590157          3.69
     1.588224         12.69
     1.587289          1.05
     1.585487         37.27
     1.583095         41.31
     1.582631         51.47
     1.580122         35.52
     1.578200          8.21
     1.551807         44.39
     1.551680         41.19
     1.549656          0.66
     1.548220         19.02
     1.546538         45.87
     1.545428         35.82
     1.543721          4.38
     1.542769         78.79
     1.539956         35.57
     1.505172          0.97
     1.502155          5.41
     1.501898          5.55
     1.500458         25.98
     1.496748          0.44
     1.494350         16.10
     1.458882          1.05
     1.418986         19.88
     1.416401         10.36
     1.414212          0.59
     1.412852          0.20
     1.411808         11.81
     1.410344          7.94
     1.410064         13.67
     1.408995         13.22
     1.408911         24.71
     1.408660          1.08
     1.407262         18.46
     1.405782          2.07
     1.404585         32.33
     1.388544          0.01
     1.387032          3.47
     1.384469          1.01
     1.384204          1.10
     1.383566          4.31
     1.382082          6.68
     1.380034          2.89
     1.378550          0.00
     1.353345          0.77
     1.349190         82.57
     1.347519         15.48
     1.347420         60.14
     1.345503        109.71
     1.344627         33.00
     1.343895         43.87
     1.342178          0.15
     1.342059          1.37
     1.341694         65.81
     1.341128         13.51
     1.339642         45.53
     1.339537         26.01
     1.337374          4.71
     1.337333         36.93
     1.324342         75.65
     1.320109         59.35
     1.316435          9.05
     1.313304         49.58
     1.294179          7.84
     1.291709         18.15
     1.288266          9.89
     1.287280          3.75
     1.286038         40.30
     1.285274         44.61
     1.283679         82.30
     1.282408          3.27
     1.282217         12.66
     1.278935          0.11
     1.241726          0.04
     1.239923          5.46
     1.238091         11.90
     1.237714         43.05
     1.237230          8.73
     1.235374          5.58
     1.235243         17.52
     1.233921          1.59
     1.233852         39.89
     1.233017         14.18
     1.232614          0.02
     1.231163          1.59
     1.230395          7.45
     1.229296         14.08
     1.228309          0.13
     1.227511         39.12
     1.225902         19.01
     1.214473         12.20
     1.213255          0.36
     1.190266         34.32
     1.188754          1.78
     1.187486         25.65
     1.186884         30.30
     1.186151          0.26
     1.185283         33.58
     1.184482         45.37
     1.184476         30.29
     1.184282          0.88
     1.181887          0.02
     1.181241          0.75
     1.180422         30.94
     1.174481          2.90
     1.173313          6.82
     1.172254          0.00
     1.171289         10.92
     1.169961          0.14
     1.168953          1.83
     1.168593          8.03
     1.167994         20.49
     1.167442         18.35
     1.167120          0.01
     1.166889          1.94
     1.166127          5.49
     1.164223         16.44
     1.153870          0.12
     1.152762          0.00
     1.149816          5.27
     1.149583          3.27
     1.149544          0.08
     1.149277          2.55
     1.148911          0.03
     1.148506          4.81
     1.148061          8.23
     1.147115          1.05
     1.146667          2.04
     1.145945          2.97
     1.145014          0.65
     1.144137          2.63
     1.142315          6.56
     1.140392         15.43
     1.132849         36.62
     1.125917         10.28
     1.111231          0.57
     1.110140          3.90
     1.109720         20.25
     1.109625          7.58
     1.109254          0.60
     1.106732          3.84
     1.106665          2.47
     1.106461          0.93
     1.106256         11.90
     1.105309         13.52
     1.104011          8.49
     1.102840         15.86
     1.101725          0.30
     1.097991          0.01
     1.097036          0.65
     1.095987         12.87
     1.095425          0.33
     1.094668          7.96
     1.094295          3.74
     1.094162          0.00
     1.092570          2.03
     1.091779          3.43
     1.091233          0.21
     1.091155          0.21
     1.089706         19.19
     1.089595          0.99
     1.077022          2.96
     1.076679         19.65
     1.075221          1.57
     1.074687         23.70
     1.074620         10.21
     1.074173          8.20
     1.074089         20.80
     1.073242          2.18
     1.072499          8.27
     1.072490          0.00
     1.072387          1.61
     1.072354          0.09
     1.070973          0.13
     1.070465          1.15
     1.069985          0.82
     1.068360          2.88
     1.061764          3.93
     1.061221          6.02
     1.047925         24.45
     1.047765          0.09
     1.044253          5.54
     1.042273          0.48
     1.034538          0.06
     1.032147          1.35
     1.031025          0.13
     1.030285          6.22
     1.026637         21.66
     1.020552          0.04
     1.020368          0.08
     1.019785          0.12
     1.019490          3.08
     1.018455          4.60
     1.018073          0.33
     1.017767         16.02
     1.017582         23.67
     1.017124          2.67
     1.017027          5.28
     1.016681         23.72
     1.015923         15.17
     1.015892          7.73
     1.015607          6.81
     1.015558          6.38
     1.015056         15.29
     1.014429          1.92
     1.014266          3.25
     1.013799          7.16
     1.013723          0.44
     1.013359          0.56
     1.013305          7.72
     1.013222          0.01
     1.013097          0.40
     1.012785          0.74
     1.011901          8.50
     1.010862          2.55
     1.010677         10.37
     1.009819          2.58
     1.008022          6.72
##############################################################################
###                            Comments                                    ###
##############################################################################
###   Diffraction pattern calculated by Match!. 
###   I/Ic calculated by Match!. 
###   Space group has been derived from given symmetry operations. 
##############################################################################


