##############################################################################
###               Crystal structure data exported by Match!                ###
##############################################################################
###                           Data published by:                           ###
###                                                                        ###
###               COD (Crystallography Open Database)
##############################################################################
data_1011020
_citation_journal_full    'Comptes Rendus Hebdomadaires des Seances de l'Academie des Sciences(1884 - 1965)'
_citation_journal_volume  '200'
_citation_page_first  '69'
_citation_page_last   '71'
_citation_year  '1935'
_citation_title  'Structure cristalline de la manganite.'
loop_
_publ_author_name
  'Garrido J'
_chemical_formula_sum  'H Mn O2'
_chemical_name_mineral  'Manganite'
_chemical_name_common  'Manganese(III) oxide hydroxide'
_symmetry_space_group_name_H-M 'P n n m'
_space_group_IT_number 58
_space_group_crystal_system 'orthorhombic'
loop_
_symmetry_equiv_pos_as_xyz
   'x, y, z'
   '-x, -y, z'
   'x+0.5, -y+0.5, -z+0.5'
   '-x+0.5, y+0.5, -z+0.5'
   '-x, -y, -z'
   'x, y, -z'
   '-x+0.5, y+0.5, z+0.5'
   'x+0.5, -y+0.5, z+0.5'
_cell_length_a        4.42000
_cell_length_b        5.23000
_cell_length_c        2.87000
_cell_angle_alpha    90.0000
_cell_angle_beta     90.0000
_cell_angle_gamma    90.0000
_cell_formula_units_Z 2
loop_
_atom_site_label
_atom_site_fract_x
_atom_site_fract_y
_atom_site_fract_z
_atom_site_occupancy
_atom_site_B_iso_or_equiv
o      0.250   0.176   0.000    1.00000    1.000
mn      0.000   0.000   0.000    1.00000    1.000
h      -1.000   -1.000   -1.000    1.00000    1.000
_cell_measurement_wavelength    1.541874
_cell_measurement_radiation   'x-rays'
_exptl_crystal_density_diffrn    4.402000
_exptl_crystal_density_meas      4.300000
loop_
_pd_peak_d_spacing
_pd_peak_intensity
     3.375881       1000.00
     2.615000        100.96
     2.516059        663.54
     2.407079        364.01
     2.250613         58.61
     2.210000         26.99
     2.186606        130.06
     1.771013        245.43
     1.687940        172.80
     1.660428        113.63
     1.621746         86.39
     1.489988         16.50
     1.435000         56.47
     1.418136         49.07
     1.411922          0.67
     1.320640         72.02
     1.310712         34.85
     1.307500         12.99
     1.283618          4.32
     1.271394         10.23
     1.258029         15.43
     1.253793          5.48
     1.235431        112.94
     1.209974          6.43
     1.203540          7.33
     1.171760         43.29
     1.148941         40.01
     1.125306         23.36
     1.125294         18.45
     1.105000         17.80
     1.093303         52.71
     1.074686         31.22
     1.047643          0.16
     1.017885         13.20
     1.017857          7.30
     1.011729         36.91
     1.008683         25.78
##############################################################################
###                            Comments                                    ###
##############################################################################
###   from Ilfeld, Harz Mts., Germany
###   Diffraction pattern calculated by Match!. 
###   I/Ic calculated by Match!. 
###   Space group has been derived from given symmetry operations. 
##############################################################################


