##############################################################################
###               Crystal structure data exported by Match!                ###
##############################################################################
###                           Data published by:                           ###
###                                                                        ###
###               COD (Crystallography Open Database)
##############################################################################
data_4124027
_citation_journal_full    'Journal of the American Chemical Society'
_citation_journal_volume  '126'
_citation_page_first  '9769'
_citation_page_last   '9775'
_citation_year  '2004'
_citation_title  'Chemical evaluation of hypothetical uninodal zeolites'
loop_
_publ_author_name
  'Foster M.D.'
  'Friedrichs O.D.'
  'Bell R.G.'
  'Klinowski J.'
  'Paz F.A.A.'
_chemical_formula_sum  'O2 Si'
_chemical_name_common  'Silica'
_symmetry_space_group_name_H-M 'I m -3 m'
_space_group_IT_number 229
_space_group_crystal_system 'cubic'
loop_
_symmetry_equiv_pos_as_xyz
   'x, y, z'
   'x+0.5, y+0.5, z+0.5'
   '-y, x, z'
   '-y+0.5, x+0.5, z+0.5'
   '-x, -y, z'
   '-x+0.5, -y+0.5, z+0.5'
   'y, -x, z'
   'y+0.5, -x+0.5, z+0.5'
   'x, -z, y'
   'x+0.5, -z+0.5, y+0.5'
   'x, -y, -z'
   'x+0.5, -y+0.5, -z+0.5'
   'x, z, -y'
   'x+0.5, z+0.5, -y+0.5'
   'z, y, -x'
   'z+0.5, y+0.5, -x+0.5'
   '-x, y, -z'
   '-x+0.5, y+0.5, -z+0.5'
   '-z, y, x'
   '-z+0.5, y+0.5, x+0.5'
   'z, x, y'
   'z+0.5, x+0.5, y+0.5'
   'y, z, x'
   'y+0.5, z+0.5, x+0.5'
   '-y, -z, x'
   '-y+0.5, -z+0.5, x+0.5'
   'z, -x, -y'
   'z+0.5, -x+0.5, -y+0.5'
   '-y, z, -x'
   '-y+0.5, z+0.5, -x+0.5'
   '-z, -x, y'
   '-z+0.5, -x+0.5, y+0.5'
   '-z, x, -y'
   '-z+0.5, x+0.5, -y+0.5'
   'y, -z, -x'
   'y+0.5, -z+0.5, -x+0.5'
   'y, x, -z'
   'y+0.5, x+0.5, -z+0.5'
   '-y, -x, -z'
   '-y+0.5, -x+0.5, -z+0.5'
   '-x, z, y'
   '-x+0.5, z+0.5, y+0.5'
   '-x, -z, -y'
   '-x+0.5, -z+0.5, -y+0.5'
   'z, -y, x'
   'z+0.5, -y+0.5, x+0.5'
   '-z, -y, -x'
   '-z+0.5, -y+0.5, -x+0.5'
   '-x, -y, -z'
   '-x+0.5, -y+0.5, -z+0.5'
   'y, -x, -z'
   'y+0.5, -x+0.5, -z+0.5'
   'x, y, -z'
   'x+0.5, y+0.5, -z+0.5'
   '-y, x, -z'
   '-y+0.5, x+0.5, -z+0.5'
   '-x, z, -y'
   '-x+0.5, z+0.5, -y+0.5'
   '-x, y, z'
   '-x+0.5, y+0.5, z+0.5'
   '-x, -z, y'
   '-x+0.5, -z+0.5, y+0.5'
   '-z, -y, x'
   '-z+0.5, -y+0.5, x+0.5'
   'x, -y, z'
   'x+0.5, -y+0.5, z+0.5'
   'z, -y, -x'
   'z+0.5, -y+0.5, -x+0.5'
   '-z, -x, -y'
   '-z+0.5, -x+0.5, -y+0.5'
   '-y, -z, -x'
   '-y+0.5, -z+0.5, -x+0.5'
   'y, z, -x'
   'y+0.5, z+0.5, -x+0.5'
   '-z, x, y'
   '-z+0.5, x+0.5, y+0.5'
   'y, -z, x'
   'y+0.5, -z+0.5, x+0.5'
   'z, x, -y'
   'z+0.5, x+0.5, -y+0.5'
   'z, -x, y'
   'z+0.5, -x+0.5, y+0.5'
   '-y, z, x'
   '-y+0.5, z+0.5, x+0.5'
   '-y, -x, z'
   '-y+0.5, -x+0.5, z+0.5'
   'y, x, z'
   'y+0.5, x+0.5, z+0.5'
   'x, -z, -y'
   'x+0.5, -z+0.5, -y+0.5'
   'x, z, y'
   'x+0.5, z+0.5, y+0.5'
   '-z, y, -x'
   '-z+0.5, y+0.5, -x+0.5'
   'z, y, x'
   'z+0.5, y+0.5, x+0.5'
_cell_length_a       18.47368
_cell_length_b       18.47368
_cell_length_c       18.47368
_cell_angle_alpha    90.0000
_cell_angle_beta     90.0000
_cell_angle_gamma    90.0000
_cell_formula_units_Z 48
loop_
_atom_site_label
_atom_site_fract_x
_atom_site_fract_y
_atom_site_fract_z
_atom_site_occupancy
_atom_site_B_iso_or_equiv
o      0.429   0.929   0.250    1.00000    1.000
o      0.500   0.148   0.852    1.00000    1.000
si      0.423   0.000   0.696    1.00000    1.000
o      0.500   0.000   0.650    1.00000    1.000
_cell_measurement_wavelength    1.541874
_cell_measurement_radiation   'x-rays'
_exptl_crystal_density_diffrn    0.759000
loop_
_pd_peak_d_spacing
_pd_peak_intensity
    13.062865       1000.00
     9.236840        155.25
     7.541848        397.08
     6.531432         81.73
     5.841891        104.22
     5.332892        116.95
     4.937299          4.74
     4.618420         22.28
     4.354288         32.15
     4.130841          0.76
     3.938602         15.61
     3.770924          0.20
     3.622987         31.24
     3.372817          1.84
     3.265716          7.79
     3.168210         11.76
     3.078947          0.77
     2.996827          1.30
     2.920945          3.17
     2.850551         36.41
     2.785012         10.24
     2.723796         22.87
     2.666446          0.18
     2.612573         16.52
     2.561839          4.43
     2.513949         27.42
     2.468649          0.18
     2.425713          9.43
     2.346160          1.24
     2.309210          0.00
     2.273953         10.68
     2.240263          2.32
     2.208027          2.81
     2.177144          9.08
     2.147522          3.35
     2.119076          6.23
     2.091732          2.24
     2.065420          8.48
     2.040077          1.67
     2.015644          1.64
     1.992068         18.62
     1.969301          1.08
     1.947297         10.79
     1.905415          4.46
     1.885462          0.00
     1.866124          4.16
     1.847368          2.12
     1.829167          5.45
     1.811493          1.95
     1.794322          0.78
     1.777631          2.04
     1.761396          4.98
     1.730219          4.59
     1.715238          1.11
     1.700640          1.23
     1.686409          0.01
     1.672528          5.73
     1.645766          2.18
     1.632858          0.64
     1.620249          0.15
     1.607927          0.35
     1.595883          2.22
     1.584105          0.69
     1.572584          6.46
     1.561311          0.19
     1.550277          1.35
     1.539473          6.21
     1.528893          1.56
     1.518527          0.01
     1.508370          0.74
     1.498413          7.60
     1.488652          0.03
     1.469687          1.74
     1.460473          0.12
     1.451429          3.30
     1.442552          5.46
     1.433836          0.13
     1.425275          0.25
     1.416867          4.02
     1.408605          4.09
     1.400486          8.08
     1.392506          0.00
     1.384661          0.46
     1.376947          1.18
     1.369360          1.77
     1.361898          0.38
     1.354556          2.63
     1.340222          0.12
     1.333223          3.44
     1.326333          9.10
     1.319549          2.71
     1.312867          8.34
     1.306286          2.31
     1.299804          0.72
     1.293416          3.03
     1.287122          3.09
     1.280919          0.42
     1.274805          3.30
     1.268778          0.94
     1.262835          5.68
     1.256975          2.54
     1.251196          2.59
     1.239872          1.32
     1.234325          0.07
     1.228851          1.62
     1.223449          0.26
     1.218118          4.10
     1.212857          0.60
     1.207662          2.45
     1.202534          2.26
     1.197471          0.08
     1.187533          1.58
     1.182656          2.01
     1.177839          2.72
     1.173080          0.09
     1.168378          2.13
     1.159142          3.05
     1.154605          1.06
     1.150121          1.23
     1.145689          0.12
##############################################################################
###                            Comments                                    ###
##############################################################################
###   Diffraction pattern calculated by Match!. 
###   I/Ic calculated by Match!. 
##############################################################################


