##############################################################################
###               Crystal structure data exported by Match!                ###
##############################################################################
###                           Data published by:                           ###
###                                                                        ###
###               COD (Crystallography Open Database)
##############################################################################
data_1010267
_citation_journal_full    'Zeitschrift fuer Kristallographie, Kristallgeometrie, Kristallphysik, Kristallchemie (-144,1977)'
_citation_journal_volume  '93'
_citation_page_first  '368'
_citation_page_last   '378'
_citation_year  '1936'
_citation_title  'Ueber Aenderungen der Ionenabstaende in Hydroxyd-Schichtengittern.'
loop_
_publ_author_name
  'Lotmar W'
  'Feitknecht W'
_chemical_formula_sum  'Co H2 O2'
_chemical_name_common  'Cobalt hydroxide'
_symmetry_space_group_name_H-M 'P -3 m 1'
_space_group_IT_number 164
_space_group_crystal_system 'trigonal (hexagonal axes)'
loop_
_symmetry_equiv_pos_as_xyz
   'x, y, z'
   '-y, x-y, z'
   '-x+y, -x, z'
   'x-y, -y, -z'
   '-x, -x+y, -z'
   'y, x, -z'
   '-x, -y, -z'
   'y, -x+y, -z'
   'x-y, x, -z'
   '-x+y, y, z'
   'x, x-y, z'
   '-y, -x, z'
_cell_length_a        3.17300
_cell_length_b        3.17300
_cell_length_c        4.64000
_cell_angle_alpha    90.0000
_cell_angle_beta     90.0000
_cell_angle_gamma   120.0000
_cell_formula_units_Z 1
loop_
_atom_site_label
_atom_site_fract_x
_atom_site_fract_y
_atom_site_fract_z
_atom_site_occupancy
_atom_site_B_iso_or_equiv
co      0.000   0.000   0.000    1.00000    1.000
o      0.333   0.667   0.220    1.00000    1.000
h      -1.000   -1.000   -1.000    1.00000    1.000
_cell_measurement_wavelength    1.541874
_cell_measurement_radiation   'x-rays'
_exptl_crystal_density_diffrn    3.773000
loop_
_pd_peak_d_spacing
_pd_peak_intensity
     4.640000       1000.00
     2.747899        322.12
     2.364381        821.37
     2.320000         32.61
     1.772692        409.81
     1.586500        183.77
     1.546667         15.46
     1.501175        163.90
     1.373949         30.04
     1.347833        117.54
     1.317407         84.01
     1.309578         29.80
     1.182190         71.86
     1.160000         12.95
     1.107473         24.58
     1.068681         27.34
     1.038608         20.62
     1.027188         39.45
     1.013528         60.85
##############################################################################
###                            Comments                                    ###
##############################################################################
###   Diffraction pattern calculated by Match!. 
###   I/Ic calculated by Match!. 
##############################################################################


