##############################################################################
###               Crystal structure data exported by Match!                ###
##############################################################################
###                           Data published by:                           ###
###                                                                        ###
###               COD (Crystallography Open Database)
##############################################################################
data_9007805
_citation_journal_full    'Acta Crystallographica, Section C'
_citation_journal_volume  '46'
_citation_page_first  '1378'
_citation_page_last   '1381'
_citation_year  '1990'
_citation_title  'Structure de Cu(HPO3H)2'
loop_
_publ_author_name
  'Sghyar P. M.'
  'Durand J.'
  'Cot L.'
  'Rafiq M.'
_chemical_formula_sum  'Cu H4 O6 P2'
_symmetry_space_group_name_H-M 'P 1 21/a 1'
_space_group_IT_number 14
_space_group_crystal_system 'monoclinic'
loop_
_symmetry_equiv_pos_as_xyz
   'x, y, z'
   '-x+0.5, y+0.5, -z'
   '-x, -y, -z'
   'x+0.5, -y+0.5, z'
_cell_length_a        7.47480
_cell_length_b        9.94060
_cell_length_c        7.51750
_cell_angle_alpha    90.0000
_cell_angle_beta     99.7220
_cell_angle_gamma    90.0000
loop_
_atom_site_label
_atom_site_fract_x
_atom_site_fract_y
_atom_site_fract_z
_atom_site_occupancy
_atom_site_B_iso_or_equiv
cu      0.571   0.418   0.693    1.00000    9.631
p      0.227   0.299   0.463    1.00000    10.974
p      0.269   0.433   0.951    1.00000    12.948
o      0.395   0.387   0.474    1.00000    11.922
o      0.251   0.190   0.604    1.00000    14.922
o      0.181   0.247   0.266    1.00000    28.740
o      0.258   0.033   0.902    1.00000    14.291
o      0.121   0.991   0.184    1.00000    15.396
o      0.084   0.381   0.851    1.00000    38.767
h      0.086   0.372   0.475    1.00000    1.000
h      0.350   0.317   0.013    1.00000    1.000
h      0.503   0.068   0.838    1.00000    9.474
h      0.176   0.179   0.266    1.00000    1.578
_cell_measurement_wavelength    1.541874
_cell_measurement_radiation   'x-rays'
_exptl_crystal_density_diffrn    2.721000
loop_
_pd_peak_d_spacing
_pd_peak_intensity
     7.409539        135.75
     5.940775        199.24
     5.919017       1000.00
     4.970300        101.28
     4.964705        239.20
     4.346001          4.64
     4.127653        300.48
     4.120335         21.22
     3.754775         57.35
     3.704769          0.09
     3.683726         60.17
     3.545883         49.85
     3.471512          0.06
     3.464711        122.63
     3.454181         60.22
     3.351490          0.93
     3.339767          5.77
     3.096687          3.45
     3.024846        265.51
     3.021962          4.41
     2.970388         24.97
     2.964674        159.89
     2.959509         32.91
     2.956550         32.46
     2.894152        228.67
     2.886593        192.41
     2.868526          9.85
     2.865299         15.63
     2.753208         58.40
     2.732777          1.18
     2.634002          7.40
     2.628300         31.58
     2.485150          2.08
     2.482352          4.38
     2.469846          4.70
     2.469799          3.14
     2.463535          9.19
     2.425453         11.92
     2.420999          3.83
     2.416148         85.78
     2.397915         19.81
     2.396969          0.62
     2.386487         34.03
     2.384139          0.29
     2.356156          5.88
     2.354793          3.58
     2.347792          1.18
     2.279989          1.87
     2.266102          1.42
     2.262468          9.98
     2.233264         10.82
     2.212558          0.55
     2.211815          9.12
     2.210019         61.21
     2.203571          0.40
     2.201723         23.04
     2.178953          0.00
     2.176825         10.00
     2.173575          6.66
     2.173001         18.45
     2.168265          4.95
     2.167355         61.45
     2.063827          0.27
     2.060167          9.59
     2.037740         10.33
     2.037078          0.86
     2.035340         18.67
     2.035096         15.43
     2.032682          9.85
     2.028338          1.04
     1.980792          1.19
     1.980258          0.66
     1.974336          0.02
     1.973006          0.41
     1.952257          0.57
     1.940476          1.40
     1.938192          2.04
     1.920199          7.45
     1.919461         10.33
     1.907812          0.27
     1.878294          6.63
     1.877388          0.14
     1.875879          4.18
     1.873618          4.33
     1.870195          7.84
     1.862619          6.73
     1.852385          1.52
     1.851911          0.16
     1.850605          2.23
     1.848606          1.25
     1.845337          0.09
     1.841863          0.77
     1.840438          0.17
     1.838592          1.07
     1.830758          0.33
     1.821037          9.41
     1.811038          0.81
     1.783051          4.96
     1.781109          0.38
     1.779961          3.65
     1.778168          0.96
     1.772942          9.03
     1.752532          1.97
     1.752200          3.10
     1.752095          0.01
     1.751831          1.99
     1.751814          0.01
     1.749574          1.33
     1.747726          0.77
     1.746803          6.15
     1.745398          0.80
     1.744168          0.55
     1.735776          0.50
     1.735756          0.19
     1.734141          0.02
     1.732355          0.60
     1.727090          0.56
     1.720731          6.49
     1.703198          0.69
     1.695517          0.21
     1.675745          0.22
     1.674472          1.38
     1.673004          1.64
     1.669884          0.45
     1.661092          0.31
     1.660149          0.55
     1.658706          6.58
     1.656767          2.99
     1.656343          0.01
     1.654902          0.02
     1.653348         14.19
     1.650995          0.95
     1.633428          4.03
     1.632814          8.00
     1.630415          1.18
     1.626043          6.22
     1.623673          0.64
     1.616881          8.39
     1.616841          0.06
     1.616401          0.25
     1.612777          0.08
     1.609869          8.16
     1.594917          6.72
     1.591961          2.71
     1.591586          0.12
     1.590026          0.10
     1.568043          0.67
     1.567214          0.01
     1.563238          0.42
     1.553013          1.13
     1.548964          6.86
     1.548709          0.01
     1.548344          0.00
     1.545871          3.38
     1.545232          0.00
     1.536683          0.76
     1.535204          0.15
     1.534400          0.02
     1.534039          0.82
     1.532701          0.46
     1.532307          4.02
     1.529896          1.27
     1.527097          0.18
     1.514498          5.32
     1.513307          0.01
     1.512423          1.12
     1.511502          0.65
     1.510981          1.31
     1.502066          0.51
     1.501006          5.99
     1.495663          3.43
     1.490453          0.05
     1.485814          0.94
     1.485194          0.12
     1.484950          0.01
     1.484276          0.02
     1.483244          0.14
     1.482337          0.90
     1.481908          1.85
     1.481554          3.95
     1.479754          0.26
     1.478275          0.03
     1.477667          0.25
     1.465710          0.60
     1.463034          0.07
     1.461810          0.20
     1.460833          0.16
     1.457565          1.01
     1.452363          0.02
     1.450130          4.40
     1.448667          0.32
     1.447441          0.19
     1.447076          0.02
     1.443297          0.00
     1.440842          1.91
     1.438393          0.34
     1.434263          0.00
     1.432650          1.10
     1.430997          0.98
     1.420130          0.45
     1.419160          1.00
     1.417999          0.01
     1.414707          0.89
     1.412717          0.39
     1.406223          0.47
     1.403494          0.15
     1.402754          1.22
     1.397475          0.29
     1.394702          0.14
     1.394419          0.90
     1.393682          1.31
     1.386952          2.14
     1.378394          0.62
     1.377438          0.05
     1.376604          1.03
     1.376542          0.84
     1.376063          0.04
     1.375884          1.68
     1.375183          1.65
     1.373893          0.25
     1.373445          0.37
     1.369806          0.08
     1.368540          0.19
     1.366389          1.52
     1.363222          0.08
     1.362735          0.17
     1.362471          0.04
     1.362166          0.06
     1.359274          0.02
     1.358812          1.51
     1.358530          0.04
     1.356983          0.38
     1.355281          0.77
     1.354674          0.00
     1.354323          0.00
     1.352862          0.12
     1.352783          0.03
     1.351674          2.16
     1.351144          0.54
     1.348144          0.06
     1.346371          0.03
     1.338380          2.02
     1.333157          0.01
     1.330595          0.63
     1.330110          0.01
     1.329368          0.27
     1.328150          0.12
     1.326130          0.01
     1.326009          0.17
     1.325872          0.90
     1.325037          0.07
     1.323220          0.00
     1.322258          0.00
     1.321998          1.34
     1.320573          0.00
     1.319012          0.00
     1.318294          0.17
     1.317001          0.08
     1.315001          0.00
     1.314150          0.22
     1.304546          0.33
     1.301085          0.00
     1.300871          0.25
     1.295538          0.10
     1.291502          1.05
     1.290828          0.03
     1.290126          0.05
     1.289873          0.27
     1.285893          0.50
     1.285196          0.01
     1.280601          1.02
     1.272795          0.19
     1.272387          0.10
     1.270567          0.05
     1.267450          0.36
     1.267385          0.00
     1.267156          0.00
     1.265901          0.10
     1.263499          0.00
     1.260777          0.10
     1.258480          0.05
     1.256408          0.00
     1.254136          0.64
     1.253929          0.20
     1.253415          0.10
     1.252491          0.37
     1.251592          0.09
     1.251570          0.16
     1.251548          0.10
     1.250919          0.00
     1.249899          0.11
     1.245794          0.01
     1.243081          0.88
     1.242575          0.33
     1.241176          0.21
     1.240898          0.06
     1.237918          0.11
     1.236124          0.45
     1.235441          0.40
     1.234923          0.09
     1.234900          0.02
     1.231768          0.01
     1.231226          0.55
     1.231098          0.06
     1.229671          0.68
     1.229349          0.04
     1.229192          0.03
     1.227909          0.59
     1.226008          0.16
     1.225503          0.02
     1.225463          0.01
     1.225271          0.00
     1.224771          0.08
     1.224552          0.03
     1.224281          0.04
     1.223873          0.00
     1.222831          0.23
     1.221584          0.20
     1.220196          0.01
     1.219901          0.03
     1.218647          0.12
     1.214910          0.14
     1.214356          0.22
     1.212727          0.14
     1.210896          0.00
     1.210499          0.22
     1.208413          0.13
     1.208074          0.17
     1.207024          0.12
     1.203608          0.15
     1.203426          0.18
     1.200903          0.00
     1.200708          0.07
     1.199639          0.01
     1.199250          0.02
     1.198957          0.29
     1.198789          0.06
     1.198484          0.02
     1.198335          0.05
     1.197980          0.15
     1.197438          0.00
     1.196548          0.12
     1.196153          0.03
     1.194497          0.03
     1.193484          0.71
     1.193243          0.18
     1.192069          0.09
     1.188155          0.01
     1.183803          0.02
     1.181961          0.00
     1.180582          0.09
     1.179682          0.12
     1.179040          0.00
     1.178361          0.16
     1.178275          0.11
     1.178078          0.00
     1.177396          0.03
     1.177378          0.02
     1.175175          0.01
     1.174792          0.30
     1.173896          0.12
     1.173693          0.01
     1.173164          0.35
     1.172658          0.05
     1.172475          0.11
     1.171935          0.00
     1.171462          0.00
     1.166100          0.38
     1.162311          0.02
     1.157596          0.00
     1.157171          0.16
     1.156774          0.10
     1.155645          0.04
     1.154904          0.00
     1.154202          0.01
     1.153681          0.00
     1.153359          0.12
     1.153200          0.04
     1.152519          0.05
     1.152451          0.00
     1.151394          0.01
     1.151287          0.13
     1.149894          0.07
     1.149179          0.28
     1.148805          0.45
     1.148748          0.01
     1.147796          0.00
     1.145027          0.07
     1.139994          0.07
     1.139656          0.05
     1.139149          0.07
     1.138577          0.16
     1.138378          0.03
     1.134993          0.04
     1.133051          0.10
     1.131565          0.01
     1.131287          0.02
     1.131234          0.04
     1.129304          0.04
     1.129039          0.05
     1.128877          0.00
     1.127990          0.02
     1.127011          0.02
     1.126289          0.04
     1.124950          0.00
     1.124629          0.05
     1.118774          0.01
     1.117163          0.00
     1.116812          0.00
     1.116632          0.04
     1.116399          0.00
     1.115487          0.00
     1.114520          0.01
     1.113738          0.05
     1.113694          0.00
     1.113256          0.06
     1.113059          0.00
     1.112215          0.02
     1.111351          0.08
     1.110881          0.00
     1.110108          0.00
     1.110081          0.04
     1.110014          0.08
     1.109653          0.09
     1.109622          0.00
     1.108968          0.01
     1.108732          0.21
     1.108529          0.12
     1.108372          0.03
     1.106813          0.04
     1.106279          0.05
     1.105908          0.02
     1.105010          0.16
     1.104532          0.18
     1.104009          0.00
     1.101786          0.03
     1.101034          0.01
     1.100861          0.03
     1.097328          0.00
     1.096650          0.04
     1.095265          0.01
     1.093772          0.02
     1.092440          0.11
     1.092304          0.00
     1.089476          0.00
     1.088552          0.00
     1.088413          0.01
     1.086787          0.00
     1.086500          0.02
     1.085819          0.07
     1.085736          0.01
     1.085556          0.10
     1.085152          0.04
     1.084550          0.00
     1.084489          0.03
     1.084133          0.00
     1.083678          0.15
     1.083155          0.01
     1.076743          0.00
     1.072707          0.00
     1.070829          0.00
     1.070156          0.11
     1.069735          0.00
     1.069629          0.00
     1.068500          0.04
     1.067387          0.01
     1.067371          0.01
     1.066687          0.18
     1.066469          0.00
     1.066371          0.02
     1.066253          0.00
     1.065802          0.01
     1.065708          0.02
     1.065234          0.07
     1.065220          0.03
     1.063595          0.01
     1.062466          0.02
     1.061332          0.00
     1.060172          0.06
     1.059985          0.03
     1.058506          0.01
     1.058472          0.03
     1.058403          0.02
     1.058163          0.03
     1.057978          0.07
     1.057189          0.08
     1.056562          0.01
     1.056429          0.02
     1.055701          0.02
     1.055699          0.12
     1.055662          0.05
     1.054904          0.00
     1.054620          0.03
     1.054536          0.01
     1.053265          0.11
     1.052555          0.00
     1.049377          0.09
     1.049340          0.00
     1.049023          0.01
     1.048001          0.03
##############################################################################
###                            Comments                                    ###
##############################################################################
###   Diffraction pattern calculated by Match!. 
###   I/Ic calculated by Match!. 
##############################################################################


