##############################################################################
###               Crystal structure data exported by Match!                ###
##############################################################################
###                           Data published by:                           ###
###                                                                        ###
###               COD (Crystallography Open Database)
##############################################################################
data_8103529
_citation_journal_full    'Zeitschrift fuer Kristallographie (149,1979-)'
_citation_journal_volume  '153'
_citation_page_first  '121'
_citation_page_last   '129'
_citation_year  '1980'
_citation_title  'Reinvestigation of the crystal structures of Hg S O4 and Cd S O4'
loop_
_publ_author_name
  'Aurivillius K.'
  'Stalhandske C.'
_chemical_formula_sum  'Cd O4 S'
_chemical_name_common  'Cd (S O4)'
_symmetry_space_group_name_H-M 'P n 21 m'
_space_group_IT_number 31
_space_group_crystal_system 'orthorhombic'
loop_
_symmetry_equiv_pos_as_xyz
   'x, y, z'
   '-x, y+0.5, -z+0.5'
   'x, y, -z'
   '-x, y+0.5, z+0.5'
_cell_length_a        4.69820
_cell_length_b        4.71910
_cell_length_c        6.55780
_cell_angle_alpha    90.0000
_cell_angle_beta     90.0000
_cell_angle_gamma    90.0000
_cell_formula_units_Z 2
loop_
_atom_site_label
_atom_site_fract_x
_atom_site_fract_y
_atom_site_fract_z
_atom_site_occupancy
_atom_site_B_iso_or_equiv
o      0.360   0.670   0.000    1.00000    1.000
s      0.666   0.731   0.000    1.00000    1.000
o      0.701   0.042   0.000    1.00000    1.000
cd      0.142   0.250   0.000    1.00000    1.000
o      0.805   0.601   0.180    1.00000    1.000
_cell_measurement_wavelength    1.541874
_cell_measurement_radiation   'x-rays'
_exptl_crystal_density_diffrn    4.762000
loop_
_pd_peak_d_spacing
_pd_peak_intensity
     4.698200        192.63
     3.830408        347.14
     3.819207        160.61
     3.329494       1000.00
     3.278900        841.76
     2.968772        872.86
     2.688823         38.29
     2.359550        259.59
     2.349100         79.98
     2.336215        444.45
     2.211494        315.33
     2.108566         47.34
     2.102958        229.85
     2.007353        219.36
     2.002512          0.31
     1.983475        127.91
     1.981915        105.53
     1.915204        265.52
     1.909603         19.21
     1.827305        215.26
     1.773508         69.78
     1.770167        161.31
     1.664747         12.01
     1.639450         99.61
     1.613567        212.32
     1.600265        145.76
     1.566067         15.12
     1.547913          9.87
     1.529642         47.34
     1.523234         27.40
     1.517596         58.48
     1.515501         10.43
     1.491646         48.94
     1.486358          8.32
     1.484386         11.29
     1.470811         96.23
     1.454493         79.80
     1.449590        158.21
     1.413155          4.80
     1.357751        124.74
     1.353760         20.21
     1.346361         66.84
     1.344411          7.41
     1.324405         90.44
     1.307051         13.01
     1.304822         13.18
     1.294266         18.50
     1.292966         50.49
     1.281838          2.12
     1.279735         12.57
     1.276803          8.94
     1.273069          7.22
     1.263663         10.80
     1.263259          4.25
     1.232114         32.76
     1.229129        105.56
     1.220294         35.52
     1.214141         36.05
     1.212354         30.70
     1.179775         14.90
     1.174550         14.64
     1.168107          4.22
     1.156152          8.97
     1.145161         26.46
     1.144250          5.24
     1.139777          3.93
     1.132431          3.69
     1.127219         13.43
     1.122942         20.51
     1.121807          0.85
     1.120396          8.70
     1.113692         22.31
     1.112863          0.09
     1.110103         38.76
     1.109831          5.60
     1.105747         26.44
     1.103314         48.71
     1.101169          8.03
     1.094271         66.35
     1.092967         26.59
     1.080355         11.63
     1.076588          0.86
     1.064540          3.72
     1.054283          1.08
     1.051479         22.84
     1.051245          4.58
     1.040917         57.93
     1.038446         35.46
     1.038218         10.80
     1.034649         13.08
     1.030237         43.86
     1.022005         17.71
     1.020938         14.92
     1.013758          3.89
     1.010644         14.34
     1.007348         11.75
##############################################################################
###                            Comments                                    ###
##############################################################################
###   Diffraction pattern calculated by Match!. 
###   I/Ic calculated by Match!. 
###   Space group has been derived from given symmetry operations. 
##############################################################################


