##############################################################################
###               Crystal structure data exported by Match!                ###
##############################################################################
###                           Data published by:                           ###
###                                                                        ###
###               COD (Crystallography Open Database)
##############################################################################
data_2311040
_citation_journal_full    'Acta Crystallographica (1,1948-23,1967)'
_citation_journal_volume  '14'
_citation_page_first  '80'
_citation_page_last   '81'
_citation_year  '1961'
_citation_title  'A neutron diffraction study of orthorhombic Pb O'
loop_
_publ_author_name
  'Kay M.I.'
_chemical_formula_sum  'O Pb'
_chemical_name_common  'Lead(II) oxide'
_symmetry_space_group_name_H-M 'P b c m'
_space_group_IT_number 57
_space_group_crystal_system 'orthorhombic'
loop_
_symmetry_equiv_pos_as_xyz
   'x, y, z'
   '-x, -y, z+0.5'
   'x, -y+0.5, -z'
   '-x, y+0.5, -z+0.5'
   '-x, -y, -z'
   'x, y, -z+0.5'
   '-x, y+0.5, z'
   'x, -y+0.5, z+0.5'
_cell_length_a        5.89100
_cell_length_b        5.48900
_cell_length_c        4.77500
_cell_angle_alpha    90.0000
_cell_angle_beta     90.0000
_cell_angle_gamma    90.0000
_cell_formula_units_Z 4
loop_
_atom_site_label
_atom_site_fract_x
_atom_site_fract_y
_atom_site_fract_z
_atom_site_occupancy
_atom_site_B_iso_or_equiv
pb      0.231   0.979   0.250    1.00000    1.000
o      0.869   0.089   0.250    1.00000    1.000
_cell_measurement_wavelength    1.541874
_cell_measurement_radiation   'x-rays'
_exptl_crystal_density_diffrn    9.601000
loop_
_pd_peak_d_spacing
_pd_peak_intensity
     5.891000         47.00
     4.015912         30.88
     3.073446       1000.00
     2.945500        246.10
     2.744500        213.32
     2.595421          1.99
     2.487769          6.28
     2.387500        165.71
     2.379467          9.86
     2.280338         14.27
     2.212687          6.70
     2.206288          0.12
     2.052218          8.95
     2.007956        147.58
     1.963667         12.98
     1.854733        122.53
     1.850959         15.49
     1.848914          1.24
     1.801303        115.63
     1.757132          0.96
     1.747329         19.30
     1.724174        185.99
     1.722574          3.69
     1.640915        143.07
     1.596990         10.03
     1.554221          1.63
     1.536723        117.34
     1.516596         10.17
     1.514530          0.28
     1.479685        103.32
     1.477904          5.86
     1.472750         19.37
     1.461824          1.14
     1.422439          0.21
     1.410041         17.23
     1.376873          1.87
     1.372250         15.03
     1.363238         17.24
     1.356842          2.91
     1.340739          0.00
     1.338637          4.11
     1.336470          0.25
     1.327408          9.96
     1.318869          7.74
     1.302542          1.54
     1.297711         24.46
     1.288945         51.11
     1.287009          0.06
     1.253454         21.54
     1.252288          4.78
     1.247324          3.73
     1.243884         21.27
     1.221997          0.23
     1.206262         49.48
     1.203713         12.47
     1.193750         14.46
     1.189733         17.93
     1.178200          3.56
     1.176670         42.11
     1.169971          0.59
     1.167628          5.11
     1.166188          0.32
     1.151961          0.17
     1.147261          0.77
     1.144266          1.01
     1.140169         31.08
     1.127356          0.13
     1.124814          1.69
     1.119835         30.76
     1.115516          7.61
     1.112003          2.08
     1.106344         19.31
     1.103144         28.37
     1.094848          0.83
     1.094681         19.23
     1.084533          0.13
     1.082653          5.42
     1.079221          7.18
     1.076257          0.64
     1.060618          7.36
     1.056552          5.15
     1.055853          1.04
     1.052669         23.92
     1.039316          3.64
     1.037507          0.25
     1.034069          1.14
     1.028677          0.44
     1.026109         29.47
     1.024482         24.69
     1.023509          0.04
     1.020051          2.51
     1.017542          2.61
##############################################################################
###                            Comments                                    ###
##############################################################################
###   Diffraction pattern calculated by Match!. 
###   I/Ic calculated by Match!. 
###   Space group has been derived from given symmetry operations. 
##############################################################################


