##############################################################################
###               Crystal structure data exported by Match!                ###
##############################################################################
###                           Data published by:                           ###
###                                                                        ###
###               COD (Crystallography Open Database)
##############################################################################
data_9015503
_citation_journal_full    'Journal of Applied Physics'
_citation_journal_volume  '51'
_citation_page_first  '5362'
_citation_page_last   '5367'
_citation_year  '1980'
_citation_title  'Crystal structure and isothermal compression of Fe2O3, Cr2O3, and V2O3 to 50 kbarsNote: P = 52.4 kbar'
loop_
_publ_author_name
  'Finger L. W.'
  'Hazen R. M.'
_chemical_formula_sum  'Fe2 O3'
_chemical_name_mineral  'Hematite'
_symmetry_space_group_name_H-M 'R -3 c'
_space_group_IT_number 167
_space_group_crystal_system 'trigonal (hexagonal axes)'
loop_
_symmetry_equiv_pos_as_xyz
   'x, y, z'
   'x+0.66667, y+0.33333, z+0.33333'
   'x+0.33333, y+0.66667, z+0.66667'
   '-y, x-y, z'
   '-y+0.66667, x-y+0.33333, z+0.33333'
   '-y+0.33333, x-y+0.66667, z+0.66667'
   '-x+y, -x, z'
   '-x+y+0.66667, -x+0.33333, z+0.33333'
   '-x+y+0.33333, -x+0.66667, z+0.66667'
   'x-y, -y, -z+0.5'
   'x-y+0.66667, -y+0.33333, -z+0.83333'
   'x-y+0.33333, -y+0.66667, -z+0.16667'
   '-x, -x+y, -z+0.5'
   '-x+0.66667, -x+y+0.33333, -z+0.83333'
   '-x+0.33333, -x+y+0.66667, -z+0.16667'
   'y, x, -z+0.5'
   'y+0.66667, x+0.33333, -z+0.83333'
   'y+0.33333, x+0.66667, -z+0.16667'
   '-x, -y, -z'
   '-x+0.66667, -y+0.33333, -z+0.33333'
   '-x+0.33333, -y+0.66667, -z+0.66667'
   'y, -x+y, -z'
   'y+0.66667, -x+y+0.33333, -z+0.33333'
   'y+0.33333, -x+y+0.66667, -z+0.66667'
   'x-y, x, -z'
   'x-y+0.66667, x+0.33333, -z+0.33333'
   'x-y+0.33333, x+0.66667, -z+0.66667'
   '-x+y, y, z+0.5'
   '-x+y+0.66667, y+0.33333, z+0.83333'
   '-x+y+0.33333, y+0.66667, z+0.16667'
   'x, x-y, z+0.5'
   'x+0.66667, x-y+0.33333, z+0.83333'
   'x+0.33333, x-y+0.66667, z+0.16667'
   '-y, -x, z+0.5'
   '-y+0.66667, -x+0.33333, z+0.83333'
   '-y+0.33333, -x+0.66667, z+0.16667'
_cell_length_a        5.00200
_cell_length_b        5.00200
_cell_length_c       13.62020
_cell_angle_alpha    90.0000
_cell_angle_beta     90.0000
_cell_angle_gamma   120.0000
loop_
_atom_site_label
_atom_site_fract_x
_atom_site_fract_y
_atom_site_fract_z
_atom_site_occupancy
_atom_site_B_iso_or_equiv
fe      0.000   0.000   0.355    1.00000    0.460
o      0.311   0.000   0.250    1.00000    0.220
_cell_measurement_wavelength    1.541874
_cell_measurement_radiation   'x-rays'
_exptl_crystal_density_diffrn    5.391000
loop_
_pd_peak_d_spacing
_pd_peak_intensity
     3.655070        270.38
     2.677019       1000.00
     2.501000        722.48
     2.270033         19.93
     2.190608        184.54
     2.064051         21.80
     1.827535        359.96
     1.680893        450.33
     1.625586          3.42
     1.591927         24.64
     1.584538         80.07
     1.475569        296.96
     1.443953        299.04
     1.403312          1.73
     1.338509         30.17
     1.299309        105.04
     1.294769         18.38
     1.252771          1.02
     1.250500         67.18
     1.218357         22.58
     1.205604         11.68
     1.196794          0.47
     1.183170         14.85
     1.180127         41.77
     1.152997         56.44
     1.135017          1.41
     1.132983         87.43
     1.099271          0.33
     1.095304         81.62
     1.069526          7.28
     1.047083         89.05
     1.033561          5.62
     1.032025         28.95
     1.022264          0.27
##############################################################################
###                            Comments                                    ###
##############################################################################
###   Synthetic
###   Diffraction pattern calculated by Match!. 
###   I/Ic calculated by Match!. 
##############################################################################


