##############################################################################
###               Crystal structure data exported by Match!                ###
##############################################################################
###                           Data published by:                           ###
###                                                                        ###
###               COD (Crystallography Open Database)
##############################################################################
data_9007687
_citation_journal_full    'Acta Crystallographica, Section B'
_citation_journal_volume  '49(4)'
_citation_page_first  '636'
_citation_page_last   '641'
_citation_year  '1993'
_citation_title  'X-ray study of the electron density in calcite, CaCO3'
loop_
_publ_author_name
  'Maslen E. N.'
  'Streltsov V. A.'
  'Streltsova N. R.'
_chemical_formula_sum  'C Ca O3'
_chemical_name_mineral  'Calcite'
_symmetry_space_group_name_H-M 'R -3 c'
_space_group_IT_number 167
_space_group_crystal_system 'trigonal (hexagonal axes)'
loop_
_symmetry_equiv_pos_as_xyz
   'x, y, z'
   'x+0.66667, y+0.33333, z+0.33333'
   'x+0.33333, y+0.66667, z+0.66667'
   '-y, x-y, z'
   '-y+0.66667, x-y+0.33333, z+0.33333'
   '-y+0.33333, x-y+0.66667, z+0.66667'
   '-x+y, -x, z'
   '-x+y+0.66667, -x+0.33333, z+0.33333'
   '-x+y+0.33333, -x+0.66667, z+0.66667'
   'x-y, -y, -z+0.5'
   'x-y+0.66667, -y+0.33333, -z+0.83333'
   'x-y+0.33333, -y+0.66667, -z+0.16667'
   '-x, -x+y, -z+0.5'
   '-x+0.66667, -x+y+0.33333, -z+0.83333'
   '-x+0.33333, -x+y+0.66667, -z+0.16667'
   'y, x, -z+0.5'
   'y+0.66667, x+0.33333, -z+0.83333'
   'y+0.33333, x+0.66667, -z+0.16667'
   '-x, -y, -z'
   '-x+0.66667, -y+0.33333, -z+0.33333'
   '-x+0.33333, -y+0.66667, -z+0.66667'
   'y, -x+y, -z'
   'y+0.66667, -x+y+0.33333, -z+0.33333'
   'y+0.33333, -x+y+0.66667, -z+0.66667'
   'x-y, x, -z'
   'x-y+0.66667, x+0.33333, -z+0.33333'
   'x-y+0.33333, x+0.66667, -z+0.66667'
   '-x+y, y, z+0.5'
   '-x+y+0.66667, y+0.33333, z+0.83333'
   '-x+y+0.33333, y+0.66667, z+0.16667'
   'x, x-y, z+0.5'
   'x+0.66667, x-y+0.33333, z+0.83333'
   'x+0.33333, x-y+0.66667, z+0.16667'
   '-y, -x, z+0.5'
   '-y+0.66667, -x+0.33333, z+0.83333'
   '-y+0.33333, -x+0.66667, z+0.16667'
_cell_length_a        4.99100
_cell_length_b        4.99100
_cell_length_c       17.06200
_cell_angle_alpha    90.0000
_cell_angle_beta     90.0000
_cell_angle_gamma   120.0000
loop_
_atom_site_label
_atom_site_fract_x
_atom_site_fract_y
_atom_site_fract_z
_atom_site_occupancy
_atom_site_B_iso_or_equiv
ca      0.000   0.000   0.000    1.00000    0.796
c      0.000   0.000   0.250    1.00000    0.757
o      0.257   0.000   0.250    1.00000    1.400
_cell_measurement_wavelength    1.541874
_cell_measurement_radiation   'x-rays'
_exptl_crystal_density_diffrn    2.709000
loop_
_pd_peak_d_spacing
_pd_peak_intensity
     3.855683         85.27
     3.036058       1000.00
     2.843667         20.74
     2.495500        143.98
     2.285194        190.86
     2.094987        147.95
     1.927841         66.23
     1.912593        199.70
     1.875670        208.59
     1.626251         34.54
     1.604532         99.53
     1.587029          9.98
     1.525620         58.79
     1.518029         27.13
     1.509580         28.69
     1.473525         20.88
     1.440778         69.61
     1.421833         38.70
     1.357062         13.52
     1.339162         23.80
     1.296922         31.22
     1.285228          6.26
     1.247750         12.69
     1.235385         23.31
     1.218764          0.28
     1.195851          0.06
     1.187136          6.27
     1.179994         26.40
     1.172980          3.59
     1.154087         49.78
     1.142597         24.52
     1.131035          0.04
     1.124854          5.14
     1.075731          0.04
     1.072018          0.01
     1.061559          9.40
     1.047494         31.47
     1.045027         35.76
     1.042258          0.14
     1.035332         16.48
     1.035019          4.36
     1.023174          3.44
     1.012019         35.27
##############################################################################
###                            Comments                                    ###
##############################################################################
###   Diffraction pattern calculated by Match!. 
###   I/Ic calculated by Match!. 
##############################################################################


