##############################################################################
###               Crystal structure data exported by Match!                ###
##############################################################################
###                           Data published by:                           ###
###                                                                        ###
###               COD (Crystallography Open Database)
##############################################################################
data_9006291
_citation_journal_full    'Physics and Chemistry of Minerals'
_citation_journal_volume  '21'
_citation_page_first  '269'
_citation_page_last   '284'
_citation_year  '1994'
_citation_title  'Framework silica structures generated using simulated annealingwith a potential energy function based on an H6Si2O7 moleculeSample: 8'
loop_
_publ_author_name
  'Boisen M. B.'
  'Gibbs G. V.'
  'Bukowinski M. S. T.'
_chemical_formula_sum  'O2 Si'
_chemical_name_common  'Silica'
_symmetry_space_group_name_H-M 'C 1 2/c 1'
_space_group_IT_number 15
_space_group_crystal_system 'monoclinic'
loop_
_symmetry_equiv_pos_as_xyz
   'x, y, z'
   'x+0.5, y+0.5, z'
   '-x, y, -z+0.5'
   '-x+0.5, y+0.5, -z+0.5'
   '-x, -y, -z'
   '-x+0.5, -y+0.5, -z'
   'x, -y, z+0.5'
   'x+0.5, -y+0.5, z+0.5'
_cell_length_a        8.86640
_cell_length_b        4.74820
_cell_length_c        8.79180
_cell_angle_alpha    90.0000
_cell_angle_beta    115.4133
_cell_angle_gamma    90.0000
loop_
_atom_site_label
_atom_site_fract_x
_atom_site_fract_y
_atom_site_fract_z
_atom_site_occupancy
_atom_site_B_iso_or_equiv
si      0.812   0.128   0.187    1.00000    1.000
o      0.250   0.250   0.500    1.00000    1.000
o      0.188   0.622   0.688    1.00000    1.000
o      0.000   0.005   0.250    1.00000    1.000
_cell_measurement_wavelength    1.541874
_cell_measurement_radiation   'x-rays'
_exptl_crystal_density_diffrn    2.388000
loop_
_pd_peak_d_spacing
_pd_peak_intensity
     4.084288        250.98
     4.006135       1000.00
     4.004224        960.00
     3.970534        922.05
     3.731574          0.02
     3.346357          0.00
     3.221017        973.55
     2.578809         54.08
     2.499586        598.50
     2.483150          8.64
     2.446032         12.66
     2.374100          0.05
     2.358441         28.11
     2.326945          0.19
     2.274622         45.94
     2.208978         11.37
     2.203590         10.95
     2.191991         12.14
     2.091274          4.34
     2.042144         58.23
     2.037633         52.52
     2.036878         67.00
     2.027955          3.67
     2.003068          0.09
     2.002112         26.90
     1.985267         23.52
     1.962342        259.03
     1.901900          2.89
     1.880983         69.22
     1.865787          0.19
     1.821099         98.16
     1.767381          4.02
     1.743180         12.22
     1.673179          0.15
     1.660619          3.03
     1.649223         46.29
     1.634224          0.00
     1.625024          0.02
     1.617210         22.95
     1.616833         98.51
     1.610509         15.75
     1.603821         24.57
     1.603522         13.53
     1.566214        132.61
     1.552700          0.36
     1.548299          4.41
     1.546795          1.76
     1.541434          5.08
     1.535627          4.42
     1.530526          0.00
     1.522961          0.00
     1.517669         20.15
     1.500513         15.23
     1.492591         11.97
     1.488686         20.09
     1.469965         59.90
     1.468867         65.44
     1.466976          0.20
     1.456644         58.37
     1.426923          3.58
     1.423930          4.16
     1.419264          3.53
     1.418854         16.15
     1.412418         60.61
     1.406903         30.03
     1.396677          1.92
     1.393611         19.74
     1.390743         20.60
     1.390104         24.30
     1.384121         29.02
     1.381617         23.02
     1.361429         17.45
     1.348583         23.65
     1.344232         68.70
     1.335378         17.10
     1.334741         19.68
     1.323511         20.02
     1.320065          1.90
     1.295462         33.45
     1.293157          4.22
     1.292836          5.12
     1.290828          3.33
     1.290607         12.93
     1.289404          7.44
     1.275644         17.84
     1.258589         11.08
     1.257342         16.33
     1.251443         37.16
     1.249793          0.05
     1.243858          0.00
     1.241575          0.05
     1.223826          5.42
     1.223016          3.86
     1.218412         17.07
     1.218184          5.63
     1.214199         28.32
     1.210143         14.97
     1.209189          1.43
     1.208950         33.54
     1.187050         12.49
     1.185278          7.44
     1.180590          0.64
     1.179221         12.27
     1.176475         31.92
     1.174006          0.16
     1.170993          4.34
     1.170611          3.83
     1.170174         13.69
     1.169159         40.82
     1.168454          2.65
     1.167595          4.66
     1.164545          8.11
     1.163472          3.43
     1.163400         28.99
     1.160513          3.89
     1.159542          0.01
     1.156012          3.97
     1.146390          0.16
     1.138724         11.02
     1.138094         21.05
     1.137540          7.45
     1.137311         20.74
     1.132773         10.74
     1.131194         12.94
     1.129696         10.95
     1.127447          6.25
     1.125804          1.36
     1.121403          6.79
     1.115452          0.00
     1.112234          0.03
     1.109461         17.33
     1.107767          0.25
     1.104489          1.61
     1.101795          0.00
     1.100274          4.76
     1.099051         11.62
     1.095995          1.63
     1.095144          0.01
     1.093980          0.02
     1.087609          8.85
     1.085906          7.92
     1.083125          0.01
     1.077495          8.30
     1.073672          0.29
     1.070677         20.69
     1.068632          5.99
     1.066785          1.07
     1.060318         32.91
     1.056117          0.06
     1.051357          1.67
     1.048739          0.59
     1.045637          3.11
     1.043819          3.31
     1.043312          1.77
     1.042028          8.06
     1.041992          0.03
     1.040262          8.03
     1.037844          7.93
     1.036144          1.42
     1.031466          0.08
     1.026556          0.03
     1.023583          5.17
     1.023292          9.68
     1.023182          0.70
     1.021791          4.50
     1.021072          2.07
     1.018816          2.35
     1.018439          0.00
     1.016985          0.00
     1.013977          0.00
##############################################################################
###                            Comments                                    ###
##############################################################################
###   Diffraction pattern calculated by Match!. 
###   I/Ic calculated by Match!. 
###   Space group has been derived from given symmetry operations. 
##############################################################################


