##############################################################################
###               Crystal structure data exported by Match!                ###
##############################################################################

data_1527348
_citation_journal_full    'Acta Chemica Scandinavica (1-27,1973-42,1988)'
_citation_journal_volume  '24'
_citation_page_first  '3510'
_citation_page_last   '3526'
_citation_year  '1970'
_citation_title  'An X-Ray refinement of the crystal structure of copper(II) chloridedihydrate'
loop_
_publ_author_name
  'Engberg A.'
_chemical_formula_sum  'Cl2 Cu H4 O2'
_chemical_name_mineral  'Eriochalcite'
_chemical_name_common  'Copper dichloride dihydrate'
'Eriochalcite'
_symmetry_space_group_name_H-M 'P m n a'
_space_group_IT_number 53
_space_group_crystal_system 'orthorhombic'
loop_
_symmetry_equiv_pos_as_xyz
   'x, y, z'
   '-x+0.5, -y, z+0.5'
   'x, -y, -z'
   '-x+0.5, y, -z+0.5'
   '-x, -y, -z'
   'x+0.5, y, -z+0.5'
   '-x, y, z'
   'x+0.5, -y, z+0.5'
_cell_length_a        8.10400
_cell_length_b        3.75700
_cell_length_c        7.43300
_cell_angle_alpha    90.0000
_cell_angle_beta     90.0000
_cell_angle_gamma    90.0000
_cell_formula_units_Z 2
loop_
_atom_site_label
_atom_site_fract_x
_atom_site_fract_y
_atom_site_fract_z
_atom_site_occupancy
_atom_site_B_iso_or_equiv
h      0.306   0.130   0.082    1.00000    1.000
cl      0.000   0.380   0.240    1.00000    1.000
o      0.240   0.000   0.000    1.00000    1.000
cu      0.000   0.000   0.000    1.00000    1.000
_cell_measurement_wavelength    1.541874
_cell_measurement_radiation   'x-rays'
_exptl_crystal_density_diffrn    2.501000
loop_
_pd_peak_d_spacing
_pd_peak_intensity
     5.477808       1000.00
     4.052000        476.52
     3.757000        114.73
     3.716500         42.82
     3.353023        157.32
     3.098298        393.03
     2.754993         13.58
     2.738904         46.22
     2.642165        694.25
     2.583262        114.24
     2.538868        131.91
     2.512026          0.97
     2.369402         68.83
     2.213216        240.41
     2.103586        110.59
     2.068378         22.46
     2.026000        170.39
     2.004131        149.60
     1.888864          1.38
     1.878500         49.37
     1.858250        116.29
     1.842243         39.59
     1.825936         22.16
     1.821239         34.14
     1.783240         18.52
     1.778854          7.53
     1.776920         76.76
     1.734036         28.84
     1.704264         13.21
     1.689099         71.34
     1.676512         52.43
     1.665645         14.10
     1.661159         53.99
     1.642254         59.33
     1.641749          1.01
     1.631540          1.59
     1.607747        214.85
     1.583589         29.34
     1.549149         12.41
     1.540563          0.16
     1.510092         32.80
     1.496907         18.47
     1.472006         35.03
     1.462202         29.55
     1.459256         35.75
     1.447349         13.18
     1.424474          0.18
     1.417790          0.50
     1.404155         23.27
     1.382319          5.59
     1.381568          0.06
     1.377497         26.49
     1.369452         67.07
     1.362638         16.51
     1.356363         10.55
     1.354435         22.50
     1.350667         16.21
     1.321082         22.32
     1.309320         17.60
     1.308285          8.09
     1.303871          1.03
     1.302406         14.51
     1.291631         32.81
     1.286642          8.35
     1.275768         28.78
     1.271025          0.02
     1.269434          0.87
     1.256013          8.56
     1.252840          8.07
     1.252333         16.49
     1.238833          0.63
     1.234928          4.96
     1.230563          7.64
     1.220835         17.74
     1.210767         18.59
     1.203939         14.25
     1.202639         28.43
     1.196491         12.08
     1.186768          3.47
     1.186765          1.05
     1.184701          0.47
     1.181285          7.96
     1.176523         26.96
     1.174244          0.10
     1.165727          5.65
     1.165277          0.32
     1.164317          0.79
     1.161609          0.47
     1.153851         13.33
     1.143922          5.20
     1.141859          5.21
     1.138924          0.01
     1.130901          5.11
     1.129859         21.12
     1.123131         10.07
     1.120288         10.70
     1.117674          3.10
     1.107194          8.54
     1.106608         20.69
     1.099667         12.24
     1.096625          2.79
     1.095562         10.59
     1.094321          6.78
     1.092553         13.91
     1.086536          0.13
     1.084882         10.18
     1.078657          0.63
     1.077438          6.19
     1.070320          8.56
     1.065252         18.17
     1.060388          0.09
     1.056906          0.56
     1.054478          5.81
     1.052858          1.56
     1.051793          3.26
     1.051756          6.99
     1.049094          0.04
     1.048863          1.92
     1.038509         16.93
     1.034189          6.84
     1.032766          5.51
     1.030086          0.35
     1.025869          1.19
     1.024018          3.60
     1.024016          0.43
     1.021828          1.80
     1.017414         33.51
     1.013801         14.42
     1.013000         10.72
     1.010409          7.95
     1.010233          7.82
##############################################################################
###                            Comments                                    ###
##############################################################################
###   Diffraction pattern calculated by Match!. 
###   I/Ic calculated by Match!. 
###   Space group has been derived from given symmetry operations. 
##############################################################################


