##############################################################################
###               Crystal structure data exported by Match!                ###
##############################################################################
###                           Data published by:                           ###
###                                                                        ###
###               COD (Crystallography Open Database)
##############################################################################
data_9008878
_citation_journal_full    'Crystal Structures'
_citation_journal_volume  '1'
_citation_page_first  '85'
_citation_page_last   '237'
_citation_year  '1963'
_citation_title  'Second edition. Interscience Publishers, New York, New YorkNote: wurtzite structure'
loop_
_publ_author_name
  'Wyckoff R. W. G.'
_chemical_formula_sum  'S Zn'
_chemical_name_mineral  'Wurtzite-2H'
_symmetry_space_group_name_H-M 'P 63 m c'
_space_group_IT_number 186
_space_group_crystal_system 'hexagonal'
loop_
_symmetry_equiv_pos_as_xyz
   'x, y, z'
   'x-y, x, z+0.5'
   '-y, x-y, z'
   '-x, -y, z+0.5'
   '-x+y, -x, z'
   'y, -x+y, z+0.5'
   '-x+y, y, z'
   'x, x-y, z'
   '-y, -x, z'
   'y, x, z+0.5'
   'x-y, -y, z+0.5'
   '-x, -x+y, z+0.5'
_cell_length_a        3.81100
_cell_length_b        3.81100
_cell_length_c        6.23400
_cell_angle_alpha    90.0000
_cell_angle_beta     90.0000
_cell_angle_gamma   120.0000
loop_
_atom_site_label
_atom_site_fract_x
_atom_site_fract_y
_atom_site_fract_z
_atom_site_occupancy
_atom_site_B_iso_or_equiv
zn      0.333   0.667   0.000    1.00000    1.000
s      0.333   0.667   0.385    1.00000    1.000
_cell_measurement_wavelength    1.541874
_cell_measurement_radiation   'x-rays'
_exptl_crystal_density_diffrn    4.128000
loop_
_pd_peak_d_spacing
_pd_peak_intensity
     3.300423        996.53
     3.117000        698.32
     2.916860       1000.00
     2.266123        399.90
     1.905500        705.25
     1.758482        642.55
     1.650211        103.30
     1.625774        491.62
     1.595266        141.24
     1.558500         18.42
     1.458430         79.81
     1.409277         18.11
     1.292288        189.22
     1.247443         67.32
     1.223194         92.87
     1.206382         36.25
     1.166350        148.12
     1.158139         62.81
     1.133061          6.90
     1.100141         84.05
     1.069527        186.21
     1.039000          9.44
     1.037420         86.64
##############################################################################
###                            Comments                                    ###
##############################################################################
###   Diffraction pattern calculated by Match!. 
###   I/Ic calculated by Match!. 
###   Space group has been derived from given symmetry operations. 
##############################################################################


