##############################################################################
###               Crystal structure data exported by Match!                ###
##############################################################################

data_1010979
_citation_journal_full    'Zeitschrift fuer Kristallographie, Kristallgeometrie, Kristallphysik,Kristallchemie (-144,1977)'
_citation_journal_volume  '94'
_citation_page_first  '231'
_citation_page_last   '245'
_citation_year  '1936'
_citation_title  'Die Kristallstruktur der Cadmium- und QuecksilberDiammin-Dihalogenide'
loop_
_publ_author_name
  'MacGillavry C H'
  'Bijvoet J M'
_chemical_formula_sum  'Cl2 Cu H4 O2'
_chemical_name_mineral  'Eriochalcite'
_chemical_name_common  'Copper dichloride dihydrate'
_symmetry_space_group_name_H-M 'P b m n'
_space_group_IT_number 53
_space_group_crystal_system 'orthorhombic'
loop_
_symmetry_equiv_pos_as_xyz
   'x, y, z'
   '-x+0.5, -y+0.5, z'
   'x+0.5, -y+0.5, -z'
   '-x, y, -z'
   '-x, -y, -z'
   'x+0.5, y+0.5, -z'
   '-x+0.5, y+0.5, z'
   'x, -y, z'
_cell_length_a        7.40000
_cell_length_b        8.06000
_cell_length_c        3.74000
_cell_angle_alpha    90.0000
_cell_angle_beta     90.0000
_cell_angle_gamma    90.0000
_cell_formula_units_Z 2
loop_
_atom_site_label
_atom_site_fract_x
_atom_site_fract_y
_atom_site_fract_z
_atom_site_occupancy
_atom_site_B_iso_or_equiv
cu      0.000   0.000   0.000    1.00000    1.000
cl      0.239   0.000   0.378    1.00000    1.000
o      0.000   0.250   0.000    1.00000    1.000
_cell_measurement_wavelength    1.541874
_cell_measurement_radiation   'x-rays'
_exptl_crystal_density_diffrn    2.478000
loop_
_pd_peak_d_spacing
_pd_peak_intensity
     5.451009       1000.00
     4.030000        518.63
     3.740000         93.18
     3.700000         32.63
     3.337909        141.40
     3.083914        371.63
     2.741374          8.32
     2.725504         38.71
     2.630323        646.54
     2.570649        123.29
     2.525376        133.17
     2.500538          2.14
     2.358682         59.08
     2.202671        236.53
     2.092927        115.20
     2.059142         26.93
     2.015000        164.64
     1.995064        141.80
     1.879523          0.76
     1.870000         46.28
     1.850000        115.32
     1.833649         34.63
     1.817003         24.76
     1.813008         35.74
     1.773921         18.62
     1.769599          7.55
     1.768811         70.25
     1.725048         28.34
     1.696279         11.52
     1.681309         65.99
     1.668955         52.94
     1.658222         15.06
     1.653396         49.71
     1.634335         67.29
     1.634286          0.91
     1.624205          1.67
     1.599581        206.80
     1.575062         25.28
     1.541957         13.08
     1.533481          0.16
     1.502837         36.89
     1.490180         15.77
     1.465346         32.55
     1.455663         28.32
     1.451588         28.79
     1.440173         13.25
     1.417687          0.51
     1.411091          0.95
     1.397687         24.40
     1.376166          5.11
     1.374424          0.22
     1.370687         24.94
     1.362752         65.12
     1.356535         13.85
     1.349401          7.45
     1.347762         21.95
     1.343333         14.66
     1.315162         20.68
     1.303148         19.78
     1.302328          8.23
     1.297996          1.42
     1.296324         17.45
     1.285324         33.58
     1.280403          8.74
     1.269309         23.60
     1.264256          0.05
     1.262688          1.04
     1.250269          7.60
     1.246667         17.05
     1.246199          7.83
     1.233333          0.81
     1.229343          4.30
     1.224835          8.85
     1.215289         16.36
     1.204679         14.49
     1.198131         13.54
     1.196345         25.80
     1.190983         11.82
     1.181408          3.20
     1.181229          1.00
     1.179341          0.51
     1.175851          7.34
     1.171289         26.25
     1.168918          0.14
     1.160514          5.60
     1.159468          0.24
     1.159114          0.99
     1.155852          0.45
     1.148668         12.21
     1.137738          6.56
     1.136421          5.04
     1.133698          0.01
     1.125087          5.28
     1.124747         19.18
     1.117875         11.75
     1.115195          9.86
     1.112636          2.95
     1.102184          7.50
     1.101335         19.49
     1.094252          9.75
     1.091009          2.34
     1.090202          8.91
     1.088487          8.75
     1.086995         13.13
     1.081468          0.11
     1.079341         10.08
     1.073690          0.78
     1.072511          5.32
     1.065372          9.28
     1.060165         18.50
     1.054792          0.09
     1.051929          0.65
     1.049450          5.23
     1.048166          1.13
     1.046641          4.72
     1.046464          3.24
     1.043802          0.04
     1.043354          2.60
     1.033838         16.74
     1.029571          6.93
     1.027971          5.91
     1.025436          0.37
     1.021273          1.44
     1.019154          3.27
     1.019039          0.66
     1.017285          1.66
     1.012637         32.32
     1.009278         14.13
     1.007500         11.06
##############################################################################
###                            Comments                                    ###
##############################################################################
###   Diffraction pattern calculated by Match!. 
###   I/Ic calculated by Match!. 
###   Space group has been derived from given symmetry operations. 
##############################################################################


