##############################################################################
###               Crystal structure data exported by Match!                ###
##############################################################################
###                           Data published by:                           ###
###                                                                        ###
###               COD (Crystallography Open Database)
##############################################################################
data_9014237
_citation_journal_full    'Physical Review B'
_citation_journal_volume  '82'
_citation_page_first  '064110'
_citation_page_last   '064118'
_citation_year  '2010'
_citation_title  'Structure of siderite FeCO3 to 56 GPa and hysteresis of its spin-pairing transitionNote: run P8, P = 19.19 GPa'
loop_
_publ_author_name
  'Lavina B.'
  'Dera P.'
  'Downs R. T.'
  'Yang W.'
  'Sinogeikin S.'
  'Meng Y.'
  'Shen G.'
  'Schiferl D.'
_chemical_formula_sum  'C Fe O3'
_chemical_name_mineral  'Siderite'
_symmetry_space_group_name_H-M 'R -3 c'
_space_group_IT_number 167
_space_group_crystal_system 'trigonal (hexagonal axes)'
loop_
_symmetry_equiv_pos_as_xyz
   'x, y, z'
   'x+0.66667, y+0.33333, z+0.33333'
   'x+0.33333, y+0.66667, z+0.66667'
   '-y, x-y, z'
   '-y+0.66667, x-y+0.33333, z+0.33333'
   '-y+0.33333, x-y+0.66667, z+0.66667'
   '-x+y, -x, z'
   '-x+y+0.66667, -x+0.33333, z+0.33333'
   '-x+y+0.33333, -x+0.66667, z+0.66667'
   'x-y, -y, -z+0.5'
   'x-y+0.66667, -y+0.33333, -z+0.83333'
   'x-y+0.33333, -y+0.66667, -z+0.16667'
   '-x, -x+y, -z+0.5'
   '-x+0.66667, -x+y+0.33333, -z+0.83333'
   '-x+0.33333, -x+y+0.66667, -z+0.16667'
   'y, x, -z+0.5'
   'y+0.66667, x+0.33333, -z+0.83333'
   'y+0.33333, x+0.66667, -z+0.16667'
   '-x, -y, -z'
   '-x+0.66667, -y+0.33333, -z+0.33333'
   '-x+0.33333, -y+0.66667, -z+0.66667'
   'y, -x+y, -z'
   'y+0.66667, -x+y+0.33333, -z+0.33333'
   'y+0.33333, -x+y+0.66667, -z+0.66667'
   'x-y, x, -z'
   'x-y+0.66667, x+0.33333, -z+0.33333'
   'x-y+0.33333, x+0.66667, -z+0.66667'
   '-x+y, y, z+0.5'
   '-x+y+0.66667, y+0.33333, z+0.83333'
   '-x+y+0.33333, y+0.66667, z+0.16667'
   'x, x-y, z+0.5'
   'x+0.66667, x-y+0.33333, z+0.83333'
   'x+0.33333, x-y+0.66667, z+0.16667'
   '-y, -x, z+0.5'
   '-y+0.66667, -x+0.33333, z+0.83333'
   '-y+0.33333, -x+0.66667, z+0.16667'
_cell_length_a        4.57900
_cell_length_b        4.57900
_cell_length_c       14.28000
_cell_angle_alpha    90.0000
_cell_angle_beta     90.0000
_cell_angle_gamma   120.0000
loop_
_atom_site_label
_atom_site_fract_x
_atom_site_fract_y
_atom_site_fract_z
_atom_site_occupancy
_atom_site_B_iso_or_equiv
fe      0.000   0.000   0.000    1.00000    0.734
c      0.000   0.000   0.250    1.00000    0.394
o      0.278   0.000   0.250    1.00000    0.860
_cell_measurement_wavelength    1.541874
_cell_measurement_radiation   'x-rays'
_exptl_crystal_density_diffrn    4.452000
loop_
_pd_peak_d_spacing
_pd_peak_intensity
     3.466731        416.42
     2.653220       1000.00
     2.380000          0.00
     2.289500        229.20
     2.063242        177.07
     1.910469        207.32
     1.733366        113.41
     1.649988        284.39
     1.627701        172.54
     1.490641         17.02
     1.466858        130.44
     1.381973        106.56
     1.343543         23.25
     1.327170          9.52
     1.326610         40.13
     1.321843        108.64
     1.304111         20.56
     1.207864          5.99
     1.190000         29.68
     1.158758         27.07
     1.155577          9.57
     1.147842         51.71
     1.144750         20.71
     1.113016          3.24
     1.096593          0.47
     1.087019         15.92
     1.055890         29.93
     1.051090         69.13
     1.033882         32.54
     1.031621         39.37
     1.026365          0.37
##############################################################################
###                            Comments                                    ###
##############################################################################
###   Invigtut, Greenland
###   Diffraction pattern calculated by Match!. 
###   I/Ic calculated by Match!. 
##############################################################################


