##############################################################################
###               Crystal structure data exported by Match!                ###
##############################################################################
###                           Data published by:                           ###
###                                                                        ###
###               COD (Crystallography Open Database)
##############################################################################
data_4124069
_citation_journal_full    'Journal of the American Chemical Society'
_citation_journal_volume  '126'
_citation_page_first  '9769'
_citation_page_last   '9775'
_citation_year  '2004'
_citation_title  'Chemical evaluation of hypothetical uninodal zeolites'
loop_
_publ_author_name
  'Foster M.D.'
  'Paz F.A.A.'
  'Bell R.G.'
  'Friedrichs O.D.'
  'Klinowski J.'
_chemical_formula_sum  'O2 Si'
_chemical_name_common  'Silica'
_symmetry_space_group_name_H-M 'P n n n'
_space_group_IT_number 48
_space_group_crystal_system 'orthorhombic'
loop_
_symmetry_equiv_pos_as_xyz
   'x, y, z'
   '-x+0.5, -y+0.5, -z+0.5'
   '-x, -y, z'
   'x, -y, -z'
   '-x, y, -z'
   'x+0.5, y+0.5, -z+0.5'
   '-x+0.5, y+0.5, z+0.5'
   'x+0.5, -y+0.5, z+0.5'
_cell_length_a        9.33308
_cell_length_b        4.47933
_cell_length_c        8.06658
_cell_angle_alpha    90.0000
_cell_angle_beta     90.0000
_cell_angle_gamma    90.0000
_cell_formula_units_Z 8
loop_
_atom_site_label
_atom_site_fract_x
_atom_site_fract_y
_atom_site_fract_z
_atom_site_occupancy
_atom_site_B_iso_or_equiv
o      0.000   0.000   0.282    1.00000    1.000
o      0.000   0.500   0.129    1.00000    1.000
o      0.250   0.250   0.250    1.00000    1.000
o      0.129   0.000   0.000    1.00000    1.000
si      0.100   0.210   0.164    1.00000    1.000
_cell_measurement_wavelength    1.541874
_cell_measurement_radiation   'x-rays'
_exptl_crystal_density_diffrn    2.366000
loop_
_pd_peak_d_spacing
_pd_peak_intensity
     6.102970       1000.00
     4.666540        155.86
     4.038312         99.55
     4.033290        172.86
     3.916072         14.18
     3.611076        534.37
     3.051485          6.22
     2.999765         28.38
     2.902638         12.51
     2.853741          9.25
     2.583769         68.70
     2.555202         13.24
     2.521902        189.71
     2.435914         65.50
     2.333270          3.03
     2.305392         18.67
     2.239665          4.71
     2.238123         12.99
     2.158494         29.94
     2.102556          0.23
     2.066921         11.52
     2.034323          0.15
     2.019662         12.69
     2.019156         19.61
     2.016645          0.28
     2.004450         51.29
     1.958725         19.63
     1.958036         29.77
     1.916318          7.29
     1.852250          9.45
     1.851182         14.25
     1.841163         25.79
     1.818562         14.51
     1.805538         14.58
     1.804191         23.64
     1.773183          0.40
     1.722999          6.62
     1.710838         45.69
     1.692361         51.68
     1.684990          4.86
     1.657137         11.45
     1.639926          5.43
     1.615761         15.60
     1.614601          0.03
     1.589740          0.84
     1.584475          3.35
     1.584291          3.58
     1.583017          4.10
     1.555513          4.04
     1.533355         16.83
     1.525742          3.49
     1.517867          2.03
     1.505858         11.43
     1.499883         14.93
     1.498645          3.97
     1.498183          3.65
     1.479691          2.56
     1.474362          3.55
     1.468171          2.36
     1.451319          3.77
     1.450711          2.19
     1.450336         14.75
     1.445643          3.17
     1.444259          9.49
     1.443430          0.05
     1.432193          8.00
     1.426870          3.46
     1.411771          6.57
     1.400493          3.75
     1.384948          0.01
     1.384743          1.80
     1.380657          8.44
     1.364160         36.54
     1.351060          0.00
     1.350156          4.75
     1.346104          0.03
     1.344430          7.18
     1.341166         11.37
     1.327744          4.21
     1.315449          0.19
     1.309979          3.78
     1.305357         19.77
     1.296362          6.02
     1.292774          1.02
     1.291884          3.06
     1.289448          7.15
     1.277889          0.11
     1.277601         24.35
     1.276867          4.99
     1.275597          1.48
     1.272336          3.11
     1.265238         27.01
     1.262149         24.41
     1.261872          1.43
     1.260951         18.53
     1.260400          4.22
     1.257101          5.71
     1.242637          0.27
     1.241290          0.15
     1.231682          0.48
     1.220594          8.03
     1.218206          0.02
     1.217957         11.00
     1.206587          2.33
     1.203692          1.13
     1.200634          2.92
     1.194509          1.99
     1.190201         12.24
     1.189790          2.17
     1.187604          4.28
     1.177654          0.71
     1.168609          0.00
     1.166635          5.49
     1.165979          2.92
     1.164890         13.93
     1.162188          5.97
     1.154175          0.45
     1.153986          0.74
     1.153963          0.00
     1.152696          2.25
     1.144004          0.01
     1.143684          8.10
     1.141650          1.14
     1.139197          3.99
     1.134273          2.65
     1.127391          0.04
     1.120694          0.89
     1.120113          6.08
     1.119833          6.85
     1.119597          0.07
     1.119061          4.14
     1.118075          0.05
     1.116028          1.10
     1.108134          1.07
     1.102059          2.47
     1.101444          3.02
     1.095823          0.18
     1.088918          0.89
     1.088347          0.52
     1.087184          9.57
     1.086359          0.18
     1.085419          0.07
     1.080887          0.02
     1.080617          0.01
     1.079420          3.88
     1.079247          0.76
     1.079130          6.76
     1.079015          1.35
     1.071875          2.65
     1.071763          0.00
     1.069733          0.51
     1.067697          0.28
     1.067138          1.76
     1.066804          0.31
     1.059940          2.91
     1.053974          0.34
     1.051278          0.09
     1.050480         11.45
     1.044776          0.23
     1.040940          1.71
     1.040698          1.73
     1.034678          0.09
     1.033578          8.19
     1.033460          5.57
     1.028545          2.25
     1.027747          0.42
     1.027480          1.36
     1.026270          1.94
     1.019439          6.10
     1.018566          0.04
     1.017162          2.38
     1.010288          0.54
     1.009831          0.14
     1.009578          0.01
     1.009405          0.38
     1.009295          0.01
     1.008322          0.07
     1.006788          0.89
##############################################################################
###                            Comments                                    ###
##############################################################################
###   Diffraction pattern calculated by Match!. 
###   I/Ic calculated by Match!. 
###   Space group has been derived from given symmetry operations. 
##############################################################################


