##############################################################################
###               Crystal structure data exported by Match!                ###
##############################################################################
###                           Data published by:                           ###
###                                                                        ###
###               COD (Crystallography Open Database)
##############################################################################
data_1008768
_citation_journal_full    'Materials Science Forum'
_citation_journal_volume  '79-82'
_citation_page_first  '821'
_citation_page_last   '826'
_citation_year  '1991'
_citation_title  'Rietveld studies of the aluminium-iron substitution in synthetic goethite'
loop_
_publ_author_name
  'Hazemann J.-L.'
  'B?rar J. F.'
  'Manceau A.'
_chemical_formula_sum  'Fe H O2'
_chemical_name_mineral  'Goethite'
_chemical_name_common  'Iron(III) oxide hydroxide'
_symmetry_space_group_name_H-M 'P b n m'
_space_group_IT_number 62
_space_group_crystal_system 'orthorhombic'
loop_
_symmetry_equiv_pos_as_xyz
   'x, y, z'
   '-x, -y, z+0.5'
   'x+0.5, -y+0.5, -z'
   '-x+0.5, y+0.5, -z+0.5'
   '-x, -y, -z'
   'x, y, -z+0.5'
   '-x+0.5, y+0.5, z'
   'x+0.5, -y+0.5, z+0.5'
_cell_length_a        4.60480
_cell_length_b        9.95950
_cell_length_c        3.02300
_cell_angle_alpha    90.0000
_cell_angle_beta     90.0000
_cell_angle_gamma    90.0000
_cell_formula_units_Z 4
loop_
_atom_site_label
_atom_site_fract_x
_atom_site_fract_y
_atom_site_fract_z
_atom_site_occupancy
_atom_site_B_iso_or_equiv
fe      0.048   0.854   0.250    1.00000    1.000
o      0.708   0.200   0.250    1.00000    1.000
o      0.204   0.053   0.250    1.00000    1.000
h      -1.000   -1.000   -1.000    0.50000    1.000
_cell_measurement_wavelength    1.541874
_cell_measurement_radiation   'x-rays'
_exptl_crystal_density_diffrn    4.232000
_exptl_crystal_density_meas      4.000000
loop_
_pd_peak_d_spacing
_pd_peak_intensity
     4.979750        112.89
     4.179676       1000.00
     3.380878        103.30
     2.692944        406.80
     2.584119        237.66
     2.527096         49.24
     2.489875        133.54
     2.449474        668.08
     2.302400         29.57
     2.253526         91.62
     2.243238         28.37
     2.190201        152.43
     2.089838         11.56
     2.010804         35.99
     1.921902         59.73
     1.891934          6.29
     1.828188          6.11
     1.801435         94.69
     1.773621         24.97
     1.719049        333.52
     1.690439         93.60
     1.659917         32.31
     1.603746         69.30
     1.564364        214.04
     1.561558          3.97
     1.517023          6.63
     1.511500         95.83
     1.506394         41.68
     1.475426         28.65
     1.466833         44.81
     1.455001         97.50
     1.446342          5.65
     1.421411         52.53
     1.393225         40.04
     1.387390          0.31
     1.379877          9.58
     1.368616         37.33
     1.359376         52.36
     1.355874         18.02
     1.348270          0.11
     1.346472         20.67
     1.319682         19.86
     1.318072         65.98
     1.306605          0.57
     1.292060         26.09
     1.265311         18.28
     1.263548          8.40
     1.253500          7.54
     1.244938          0.30
     1.244016         23.83
     1.239794          1.21
     1.229981          4.20
     1.224737          3.38
     1.215827          0.35
     1.210335          0.17
     1.201791          0.07
     1.199369         29.56
     1.180906          2.00
     1.164915          2.02
     1.151200          4.45
     1.151143         22.96
     1.143586         26.55
     1.128013         11.00
     1.126959          8.36
     1.126763         34.72
     1.123622          8.11
     1.121619          0.29
     1.117586         12.08
     1.116776          0.88
     1.095101         11.94
     1.087663          3.82
     1.086058          1.80
     1.075977          4.45
     1.070739          3.19
     1.069610          4.79
     1.066982         19.45
     1.055969         18.28
     1.052645         23.42
     1.051571          2.37
     1.044919          1.36
     1.043458          7.55
     1.029624         18.83
     1.024424         23.39
     1.023435         25.51
     1.013682         24.82
     1.010740         32.74
##############################################################################
###                            Comments                                    ###
##############################################################################
###   synthetic
###   Diffraction pattern calculated by Match!. 
###   I/Ic calculated by Match!. 
###   Space group has been derived from given symmetry operations. 
##############################################################################


