##############################################################################
###               Crystal structure data exported by Match!                ###
##############################################################################
###                           Data published by:                           ###
###                                                                        ###
###               COD (Crystallography Open Database)
##############################################################################
data_1200004
_citation_journal_full    'Comptes Rendus Hebdomadaires des Seances de l'Academie des Sciences'
_citation_journal_volume  '255'
_citation_page_first  '1962'
_citation_page_last   '1964'
_citation_year  '1962'
_citation_title  'Structure de la forme hautes temperatures du sulfate anhydre demagnesium, \b-MgSO~4~'
loop_
_publ_author_name
  'Coing-Boyat J.'
_chemical_formula_sum  'Mg O4 S'
_chemical_name_common  'Magnesium sulfate'
_symmetry_space_group_name_H-M 'P b n m'
_space_group_IT_number 62
_space_group_crystal_system 'orthorhombic'
loop_
_symmetry_equiv_pos_as_xyz
   'x, y, z'
   '-x, -y, z+0.5'
   'x+0.5, -y+0.5, -z'
   '-x+0.5, y+0.5, -z+0.5'
   '-x, -y, -z'
   'x, y, -z+0.5'
   '-x+0.5, y+0.5, z'
   'x+0.5, -y+0.5, z+0.5'
_cell_length_a        4.74200
_cell_length_b        8.57500
_cell_length_c        6.69900
_cell_angle_alpha    90.0000
_cell_angle_beta     90.0000
_cell_angle_gamma    90.0000
_cell_formula_units_Z 4
loop_
_atom_site_label
_atom_site_fract_x
_atom_site_fract_y
_atom_site_fract_z
_atom_site_occupancy
_atom_site_B_iso_or_equiv
mg      0.000   0.000   0.000    1.00000    1.000
s      0.458   0.186   0.250    1.00000    1.000
o      0.750   0.130   0.250    1.00000    1.000
o      0.458   0.367   0.250    1.00000    1.000
o      0.319   0.130   0.061    1.00000    1.000
_cell_measurement_wavelength    1.541874
_cell_measurement_radiation   'x-rays'
_exptl_crystal_density_diffrn    2.935000
loop_
_pd_peak_d_spacing
_pd_peak_intensity
     4.287500          2.29
     4.149743         67.65
     3.870440         18.23
     3.611204        346.43
     3.527735       1000.00
     3.349500         32.36
     3.180296         43.32
     2.872977          9.56
     2.639520        243.86
     2.606394         78.47
     2.448004        219.34
     2.371000         32.76
     2.306307        161.74
     2.299292          0.24
     2.285252         95.07
     2.162866          5.36
     2.143750         36.42
     2.074871          2.65
     2.041753         44.51
     2.020219         34.28
     1.981981         20.27
     1.980493          0.98
     1.976415         20.51
     1.966384         70.83
     1.953410          3.01
     1.935220          6.58
     1.887743          4.44
     1.875309          0.03
     1.827509          0.76
     1.824884          5.03
     1.805602         34.42
     1.763868        108.34
     1.760724         11.91
     1.687417          0.48
     1.674750         79.61
     1.649754          3.69
     1.612766          0.04
     1.602483          4.50
     1.597123          4.87
     1.590148         34.54
     1.567967         25.43
     1.559965          0.05
     1.554477         27.63
     1.553042         16.05
     1.547158         15.32
     1.546450         11.50
     1.538421         28.09
     1.519987          3.10
     1.514244         11.72
     1.483089          2.18
     1.481842          2.63
     1.470243         25.09
     1.453097        100.66
     1.448027          7.03
     1.436488         31.65
     1.429167         20.73
     1.413038          0.43
     1.410029         35.34
     1.397713          1.29
     1.389588          8.14
     1.383248          3.92
     1.382236         39.03
     1.368371          0.02
     1.367917         24.25
     1.360624          3.35
     1.356100         11.32
     1.354670          1.31
     1.350837          7.21
     1.340687          0.72
     1.319760          0.02
     1.314510          0.01
     1.307424          3.91
     1.303197          0.57
     1.295286         10.01
     1.290147         18.78
     1.289326          3.10
     1.283517          0.02
     1.278816         15.51
     1.278515          0.05
     1.275788         26.47
     1.274994         28.13
     1.272224          3.33
     1.271437          0.55
     1.266740         18.64
     1.249884          4.83
     1.235427          4.01
     1.234706          0.56
     1.233896          0.04
     1.224002         11.63
     1.204069         24.12
     1.203735         10.38
     1.189323          5.92
     1.186064          7.36
     1.185500          8.08
     1.179800          7.99
     1.175912          1.08
     1.175290          0.03
     1.174330          1.41
     1.167900          5.29
     1.166731          0.02
     1.162293          0.89
     1.161693          0.81
     1.156692          0.03
     1.155805          1.91
     1.153154          6.58
     1.149646          0.01
     1.145184          0.94
     1.142626          0.74
     1.139331          4.46
     1.136159          5.44
     1.126359          2.30
     1.125539          2.13
     1.118039          0.02
     1.117567          0.57
     1.116500          4.70
     1.110309          3.35
     1.108195         17.54
     1.105404          5.63
     1.104888          1.08
     1.098062         13.13
     1.095051          1.42
     1.088325          0.06
     1.087133         11.82
     1.081433         10.72
     1.080707          1.15
     1.080466          9.71
     1.079983          4.26
     1.078158          8.81
     1.074241          0.19
     1.073331          5.26
     1.071875          2.34
     1.069405          1.18
     1.066507         11.28
     1.060099          1.20
     1.059643          2.62
     1.058412          0.03
     1.053467          0.23
     1.047474          6.48
     1.047069          3.30
     1.045499          0.01
     1.040838          0.23
     1.039365          2.39
     1.037436          0.39
     1.035058          2.75
     1.032994          0.60
     1.030992          7.23
     1.030573          6.14
     1.025215          1.81
     1.024597          3.72
     1.022047          4.57
     1.020877          8.81
     1.017191          2.83
     1.015834          0.03
     1.014864          1.03
     1.013067          3.56
     1.010687          0.43
     1.010109          0.13
##############################################################################
###                            Comments                                    ###
##############################################################################
###   Diffraction pattern calculated by Match!. 
###   I/Ic calculated by Match!. 
###   Space group has been derived from given symmetry operations. 
##############################################################################


