##############################################################################
###               Crystal structure data exported by Match!                ###
##############################################################################
###                           Data published by:                           ###
###                                                                        ###
###               COD (Crystallography Open Database)
##############################################################################
data_9007169
_citation_journal_full    'Physics and Chemistry of Minerals'
_citation_journal_volume  '30'
_citation_page_first  '167'
_citation_page_last   '176'
_citation_year  '2003'
_citation_title  'Compression mechanisms of coesiteSample: X1P5, P = 6.509 GPa'
loop_
_publ_author_name
  'Angel R. J.'
  'Shaw C. S. J.'
  'Gibbs G. V.'
_chemical_formula_sum  'O2 Si'
_chemical_name_mineral  'Coesite'
_symmetry_space_group_name_H-M 'C 1 2/c 1'
_space_group_IT_number 15
_space_group_crystal_system 'monoclinic'
loop_
_symmetry_equiv_pos_as_xyz
   'x, y, z'
   'x+0.5, y+0.5, z'
   '-x, y, -z+0.5'
   '-x+0.5, y+0.5, -z+0.5'
   '-x, -y, -z'
   '-x+0.5, -y+0.5, -z'
   'x, -y, z+0.5'
   'x+0.5, -y+0.5, z+0.5'
_cell_length_a        6.94500
_cell_length_b       12.19090
_cell_length_c        7.09120
_cell_angle_alpha    90.0000
_cell_angle_beta    120.8500
_cell_angle_gamma    90.0000
loop_
_atom_site_label
_atom_site_fract_x
_atom_site_fract_y
_atom_site_fract_z
_atom_site_occupancy
_atom_site_B_iso_or_equiv
si      0.136   0.111   0.069    1.00000    0.430
si      0.509   0.157   0.546    1.00000    0.439
o      0.000   0.000   0.000    1.00000    0.739
o      0.500   0.108   0.750    1.00000    0.660
o      0.249   0.131   0.924    1.00000    0.700
o      0.321   0.101   0.325    1.00000    0.760
o      0.030   0.212   0.469    1.00000    0.660
_cell_measurement_wavelength    1.541874
_cell_measurement_radiation   'x-rays'
_cell_measurement_pressure       6510000.000000
_exptl_crystal_density_diffrn    3.097000
loop_
_pd_peak_d_spacing
_pd_peak_intensity
     6.095450         71.94
     5.456639          4.51
     5.356089          4.00
     4.307457         21.44
     3.404521         71.89
     3.382268        136.47
     3.357909        298.55
     3.331592        685.33
     3.051012        928.25
     3.047725       1000.00
     3.043943        758.49
     3.016411        791.37
     2.981186        185.71
     2.728319          8.14
     2.725290         60.04
     2.723261         93.70
     2.678045         91.04
     2.671612        109.01
     2.635933        255.26
     2.290247        127.96
     2.276676         84.03
     2.264130         17.05
     2.256779         31.62
     2.245666          1.76
     2.240030         94.58
     2.224351         69.54
     2.168079         27.45
     2.156228         49.37
     2.153729         22.47
     2.131152         40.52
     2.117984         10.79
     2.031817          1.18
     2.013094         23.05
     2.009007          4.40
     2.006275          9.58
     1.993702        118.04
     1.991561         38.91
     1.987626          2.63
     1.976648          0.66
     1.961561         34.64
     1.927311          0.00
     1.925397          0.20
     1.845898          6.33
     1.818880        103.96
     1.814685         14.10
     1.785363        116.39
     1.772794        148.07
     1.753516        125.15
     1.735622          2.49
     1.731717          0.00
     1.702260          0.00
     1.691134          8.19
     1.689927         65.06
     1.689120         35.95
     1.684193          8.73
     1.681811          9.93
     1.679743         19.59
     1.678955         72.64
     1.674685         13.65
     1.671704         42.49
     1.669271         21.30
     1.667172          1.18
     1.665796         26.90
     1.664862          4.06
     1.661012        126.20
     1.658395          0.84
     1.640361          8.48
     1.620578        162.79
     1.599334          6.00
     1.568686          1.91
     1.566762         10.91
     1.563166         40.36
     1.561878          0.93
     1.555924         29.22
     1.549904         40.24
     1.540501         36.81
     1.533086         20.36
     1.532405         49.15
     1.528442          0.33
     1.525506         33.00
     1.523862         46.04
     1.521971         10.64
     1.510581         15.17
     1.508205         15.84
     1.505641         63.87
     1.490593         23.99
     1.479864          0.71
     1.478256         28.83
     1.476637          1.95
     1.472003          3.31
     1.456028          3.16
     1.447928         13.13
     1.435819          0.03
     1.399433         12.71
     1.395330         19.91
     1.394774          1.67
     1.393421          1.65
     1.392244         10.22
     1.385061          5.69
     1.383735         13.56
     1.381522         27.40
     1.380015          1.39
     1.374924         15.13
     1.371759          1.17
     1.369572          2.15
     1.366727         16.01
     1.364183         35.46
     1.364160          6.79
     1.363278          3.31
     1.362645          8.16
     1.361630          2.52
     1.356873          4.27
     1.346207          1.41
     1.339022          0.15
     1.335806          1.35
     1.331032         15.66
     1.326716        136.86
     1.322892         52.28
     1.322356          2.79
     1.320887         68.72
     1.319685         83.76
     1.317966         49.35
     1.316949         41.38
     1.313539         11.32
     1.309891          2.32
     1.309828         33.07
     1.305837         70.53
     1.302797         57.83
     1.300594         44.07
     1.295672          3.34
     1.295227         71.70
     1.284304         12.47
     1.278096          2.94
     1.273643         24.60
     1.273100         68.60
     1.268004         43.50
     1.265348         92.18
     1.263252          6.81
     1.261498          7.78
     1.259469         58.63
     1.257353          3.86
     1.256486          7.97
     1.240820          0.32
     1.224272          0.50
     1.219931          2.25
     1.219780          3.82
     1.219090          5.23
     1.218545         58.54
     1.218121          5.79
     1.216691          0.32
     1.215792          9.90
     1.214335         15.12
     1.207864          4.93
     1.203447          0.89
     1.201854         42.94
     1.199853          1.44
     1.197939          6.16
     1.197172          0.18
     1.196225         41.62
     1.195359          0.61
     1.193990          7.47
     1.186810         16.61
     1.176347         33.92
     1.170722         31.97
     1.169433          2.35
     1.168832          3.43
     1.165167         23.70
     1.164377         42.59
     1.163994         25.10
     1.162158          0.03
     1.161638         33.07
     1.159891          0.08
     1.158723          5.17
     1.157215          0.92
     1.155608         16.46
     1.150218          1.59
     1.149336          0.05
     1.149225          0.39
     1.145124          3.86
     1.144225         27.26
     1.144000         13.39
     1.142382          0.21
     1.141750          0.15
     1.139445          1.48
     1.139415          2.16
     1.138338          0.49
     1.136781         14.33
     1.134840          4.03
     1.132065          2.04
     1.131703          1.17
     1.131164          0.50
     1.130685          4.33
     1.129361          9.63
     1.129034          1.29
     1.128389          3.27
     1.127423          0.76
     1.122833          0.56
     1.121777          0.75
     1.120015          1.04
     1.119303          4.32
     1.116810         40.62
     1.112176          1.50
     1.110531          7.50
     1.110461          2.43
     1.096123         12.67
     1.095275         18.40
     1.095224          0.14
     1.093260          0.00
     1.091328          6.79
     1.090425          2.43
     1.089601          0.08
     1.084226         12.64
     1.084039          0.04
     1.083404          2.97
     1.083086          2.41
     1.081745          1.59
     1.079380         17.70
     1.079149          5.53
     1.078126         15.12
     1.078114          0.51
     1.076864          0.07
     1.074286         15.01
     1.072807          6.21
     1.071218         13.19
     1.069705          2.67
     1.067268          3.01
     1.067084          0.35
     1.065576          0.64
     1.063505         23.59
     1.061490          3.56
     1.060478          1.48
     1.059702          0.49
     1.059499         17.44
     1.059343         11.42
     1.058992          0.00
     1.058905         21.59
     1.057793          3.78
     1.055835         22.22
     1.055540          5.88
     1.054351          5.80
     1.053655          0.54
     1.052599          0.39
     1.051468          0.00
     1.048324          0.55
     1.045017          7.55
     1.044407          2.57
     1.043420          3.21
     1.043337          0.96
     1.035811          1.57
     1.034094         20.12
     1.027479          0.00
     1.023015          6.74
     1.017004          0.15
     1.015908          0.16
     1.014648          4.11
     1.011301          0.02
     1.007312          0.06
     1.006547          0.14
##############################################################################
###                            Comments                                    ###
##############################################################################
###   Diffraction pattern calculated by Match!. 
###   I/Ic calculated by Match!. 
###   Space group has been derived from given symmetry operations. 
##############################################################################


