##############################################################################
###               Crystal structure data exported by Match!                ###
##############################################################################
###                           Data published by:                           ###
###                                                                        ###
###               COD (Crystallography Open Database)
##############################################################################
data_2310800
_citation_journal_full    'Acta Crystallographica (1,1948-23,1967)'
_citation_journal_volume  '12'
_citation_page_first  '416'
_citation_page_last   '416'
_citation_year  '1959'
_citation_title  'The structure of the orthorhombic modification of lead chromate Pb Cr O4'
loop_
_publ_author_name
  'Collotti G.'
  'Zocchi M.'
  'Conti L.'
_chemical_formula_sum  'Cr O4 Pb'
_chemical_name_common  'Lead(II) chromate'
_symmetry_space_group_name_H-M 'P n m a'
_space_group_IT_number 62
_space_group_crystal_system 'orthorhombic'
loop_
_symmetry_equiv_pos_as_xyz
   'x, y, z'
   '-x+0.5, -y, z+0.5'
   'x+0.5, -y+0.5, -z+0.5'
   '-x, y+0.5, -z'
   '-x, -y, -z'
   'x+0.5, y, -z+0.5'
   '-x+0.5, y+0.5, z+0.5'
   'x, -y+0.5, z'
_cell_length_a        8.67000
_cell_length_b        5.59000
_cell_length_c        7.13000
_cell_angle_alpha    90.0000
_cell_angle_beta     90.0000
_cell_angle_gamma    90.0000
_cell_formula_units_Z 4
loop_
_atom_site_label
_atom_site_fract_x
_atom_site_fract_y
_atom_site_fract_z
_atom_site_occupancy
_atom_site_B_iso_or_equiv
o      0.930   0.250   0.560    1.00000    1.000
cr      0.085   0.250   0.690    1.00000    1.000
pb      0.185   0.250   0.165    1.00000    1.000
o      0.240   0.250   0.560    1.00000    1.000
o      0.085   0.010   0.820    1.00000    1.000
_cell_measurement_wavelength    1.541874
_cell_measurement_radiation   'x-rays'
_exptl_crystal_density_diffrn    6.212000
loop_
_pd_peak_d_spacing
_pd_peak_intensity
     5.506978         34.62
     4.399157        600.08
     4.335000        258.38
     3.923045        453.42
     3.704104        115.11
     3.565000        288.69
     3.425633       1000.00
     3.297147        799.10
     3.087741        890.92
     2.839943        441.33
     2.795000        552.47
     2.753489         17.58
     2.678347        142.23
     2.492364          0.16
     2.470089        306.11
     2.415409         12.95
     2.349067        183.28
     2.292107         49.58
     2.244991         42.82
     2.231098        221.78
     2.199578         72.50
     2.187191          0.01
     2.167500          8.10
     2.132036        599.06
     2.120749        413.36
     2.084011         10.93
     2.083264        394.68
     2.073793        369.53
     2.020899        197.11
     1.961522         33.90
     1.952722          1.39
     1.944309          1.39
     1.933802        103.96
     1.852052          9.15
     1.835659        167.37
     1.802788         65.46
     1.782500         24.99
     1.772348          4.88
     1.765034         48.06
     1.758072         22.93
     1.750293          4.36
     1.745982        101.15
     1.744032        118.83
     1.712817          0.72
     1.711890        115.75
     1.684889         35.56
     1.670714          4.21
     1.666580         61.11
     1.665435        230.58
     1.664583        125.40
     1.648573         17.14
     1.622206         74.98
     1.613203         18.87
     1.601506          2.81
     1.581243         32.98
     1.559329         14.13
     1.543870          2.80
     1.543192         55.96
     1.539568          2.13
     1.534336        175.08
     1.529584          4.87
     1.517134          0.26
     1.502885         22.62
     1.501987         74.72
     1.480802        150.85
     1.466386          0.02
     1.464168        110.83
     1.445851        107.94
     1.445000          3.87
     1.442981         56.55
     1.433803        108.24
     1.419971         22.38
     1.416209         24.64
     1.412983         59.90
     1.407095          0.62
     1.400801         67.80
     1.399014         27.33
     1.397500         76.87
     1.389561          1.20
     1.389066          0.25
     1.386028          0.15
     1.381750         59.15
     1.376745          0.11
     1.372836        114.07
     1.364529         13.36
     1.361742         10.27
     1.358787         37.82
     1.354593         15.49
     1.354564          1.80
     1.339174          2.65
     1.336798         35.61
     1.333369          3.23
     1.330092         17.52
     1.316491         50.73
     1.313569         10.38
     1.307682         41.72
     1.307536         15.31
     1.302324         10.00
     1.301102         22.06
     1.286694         78.32
     1.283604         16.14
     1.278798          9.18
     1.274063         24.59
     1.263295         30.64
     1.256813          0.37
     1.252322        127.88
     1.249734          7.40
     1.246595         14.49
     1.246182          3.93
     1.242916          5.33
     1.238983         21.21
     1.235044          0.03
     1.234701          0.01
     1.234697         12.89
     1.220296          0.07
     1.218977         32.36
     1.214548          0.66
     1.213286         28.29
     1.207705         10.19
     1.205642          0.02
     1.195840         31.35
     1.193209          8.92
     1.192219         26.95
     1.191301         44.92
     1.188333         26.74
     1.186410          6.91
     1.177326          0.03
     1.176487         49.50
     1.174534          1.42
     1.169972         22.11
     1.165137          0.03
     1.162864         12.76
     1.160689          1.79
     1.158914         85.20
     1.152052          1.72
     1.146053         11.01
     1.145159         11.93
     1.141878         13.25
     1.135686          4.14
     1.132432         29.30
     1.129409          0.03
     1.127510         51.42
     1.122894          6.43
     1.122701         50.00
     1.122495          5.58
     1.119688         19.47
     1.118353          0.05
     1.115549          2.01
     1.111936         55.66
     1.107288         18.65
     1.104504         11.05
     1.101396          8.00
     1.100527          7.23
     1.099789          8.78
     1.099049          0.12
     1.098369          1.62
     1.095907         55.42
     1.095664         25.96
     1.095649         10.07
     1.093595         29.20
     1.091046         39.03
     1.087456          5.43
     1.084998          0.31
     1.083750         18.75
     1.082577         24.35
     1.080620          5.04
     1.079234         27.21
     1.078403          0.18
     1.077761         63.25
     1.075651         14.41
     1.071444          3.91
     1.070310         27.20
     1.066018          7.44
     1.063939          0.17
     1.060374         23.35
     1.058788         13.03
     1.054376          8.73
     1.052969          0.78
     1.052288         32.04
     1.042005          1.12
     1.041632         10.75
     1.040708          6.90
     1.036897          8.48
     1.035869         14.47
     1.033991         16.56
     1.031723          1.15
     1.029247          0.02
     1.027877          0.29
     1.024706         21.45
     1.024361         36.18
     1.022815          1.24
     1.022267          0.28
     1.020858         17.09
     1.019506          0.30
     1.017132         15.87
     1.014985          8.17
     1.011658          0.04
     1.011614          2.98
     1.010450         27.07
##############################################################################
###                            Comments                                    ###
##############################################################################
###   Diffraction pattern calculated by Match!. 
###   I/Ic calculated by Match!. 
###   Space group has been derived from given symmetry operations. 
##############################################################################


