##############################################################################
###               Crystal structure data exported by Match!                ###
##############################################################################
###                           Data published by:                           ###
###                                                                        ###
###               COD (Crystallography Open Database)
##############################################################################
data_1537983
_citation_journal_full    'Arkiv foer Kemi, Mineralogi och Geologi'
_citation_journal_volume  '25'
_citation_page_first  '13'
_citation_page_last   '13'
_citation_year  '1947'
_citation_title  'Lead oxide'
loop_
_publ_author_name
  'Bystroem A.M.'
_chemical_formula_sum  'O4 Pb3'
_chemical_name_mineral  'Minium'
_chemical_name_common  'Lead(II,IV) oxide'
_symmetry_space_group_name_H-M 'P 42/m b c'
_space_group_IT_number 135
_space_group_crystal_system 'tetragonal'
loop_
_symmetry_equiv_pos_as_xyz
   'x, y, z'
   '-y, x, z+0.5'
   '-x, -y, z'
   'y, -x, z+0.5'
   'x+0.5, -y+0.5, -z'
   '-x+0.5, y+0.5, -z'
   'y+0.5, x+0.5, -z+0.5'
   '-y+0.5, -x+0.5, -z+0.5'
   '-x, -y, -z'
   'y, -x, -z+0.5'
   'x, y, -z'
   '-y, x, -z+0.5'
   '-x+0.5, y+0.5, z'
   'x+0.5, -y+0.5, z'
   '-y+0.5, -x+0.5, z+0.5'
   'y+0.5, x+0.5, z+0.5'
_cell_length_a        8.80600
_cell_length_b        8.80600
_cell_length_c        6.56400
_cell_angle_alpha    90.0000
_cell_angle_beta     90.0000
_cell_angle_gamma    90.0000
_cell_formula_units_Z 4
loop_
_atom_site_label
_atom_site_fract_x
_atom_site_fract_y
_atom_site_fract_z
_atom_site_occupancy
_atom_site_B_iso_or_equiv
o      0.114   0.614   0.000    1.00000    1.000
o      0.172   0.672   0.250    1.00000    1.000
pb      0.000   0.500   0.250    1.00000    1.000
pb      0.143   0.161   0.000    1.00000    1.000
_cell_measurement_wavelength    1.541874
_cell_measurement_radiation   'x-rays'
_exptl_crystal_density_diffrn    8.946000
loop_
_pd_peak_d_spacing
_pd_peak_intensity
     6.226782        108.59
     4.403000         14.06
     3.938163          5.17
     3.656561         11.85
     3.377001       1000.00
     3.282000         49.61
     3.113391        135.64
     2.903389        367.51
     2.784702        485.75
     2.631398        260.84
     2.563549          4.00
     2.521240          3.56
     2.442345         14.34
     2.289027         35.11
     2.258756         50.24
     2.201500         16.86
     2.135769          6.83
     2.123369          1.30
     2.087235          4.33
     2.075594          9.69
     2.030964         97.22
     1.969081        107.82
     1.959404          2.02
     1.959351         15.48
     1.912629        192.65
     1.886047          5.09
     1.828280        239.12
     1.790106          0.76
     1.761200          1.93
     1.754227        256.52
     1.726999         21.19
     1.720458          1.14
     1.701034          8.23
     1.688500         14.24
     1.670160          5.53
     1.641000         64.74
     1.635233          0.24
     1.629678         11.49
     1.586820          4.19
     1.586737        138.90
     1.556696         50.79
     1.551901          1.58
     1.551874          3.02
     1.537676          1.57
     1.528348         36.55
     1.528324         55.84
     1.514756          0.09
     1.510216         20.66
     1.471765          8.93
     1.467667         57.95
     1.463646          2.08
     1.463624          0.14
     1.451695         23.75
     1.447697          3.01
     1.432300          1.81
     1.413781        111.86
     1.413722         19.20
     1.406502          0.58
     1.392351          2.52
     1.375266          2.30
     1.371957          3.75
     1.371938         15.29
     1.362099          3.37
     1.362046          0.07
     1.355603          2.57
     1.346040         32.54
     1.339804          2.29
     1.324560          3.62
     1.315699          4.82
     1.312721          0.10
     1.309842         68.12
     1.301255          2.07
     1.287277          4.19
     1.287232          0.60
     1.281775         40.40
     1.268408          1.31
     1.260620         43.54
     1.258070          0.41
     1.245424         41.08
     1.245356          7.26
     1.242897          4.76
     1.223530          0.15
     1.221172          0.57
     1.218854          0.99
     1.218841          0.13
     1.209597          3.96
     1.207343         10.70
     1.200609          1.03
     1.200573          3.71
     1.189603         11.13
     1.189568          7.37
     1.187459          0.29
     1.174676          0.04
     1.164362         19.23
     1.164351         57.49
     1.158318          0.07
     1.156338          3.27
     1.156284         44.93
     1.144514         62.61
     1.138751          1.71
     1.134968          9.66
     1.129378         30.90
     1.127543          0.49
     1.127493          1.57
     1.125667          0.38
     1.118412         11.80
     1.111248         13.75
     1.111219         10.51
     1.100750          5.63
     1.094000          1.42
     1.093963         40.30
     1.092295          0.73
     1.092250          0.29
     1.090581          4.56
     1.085618          2.27
     1.085592          4.06
     1.082321          0.10
     1.077496         14.39
     1.077435         23.26
     1.067884          3.69
     1.066333          2.55
     1.066324          2.35
     1.061718         13.27
     1.061684          2.09
     1.058600          5.14
     1.054084          0.18
     1.054051          1.77
     1.054027          1.07
     1.052559          1.52
     1.045120          1.07
     1.043617          1.09
     1.037797         13.50
     1.036365          1.34
     1.032134          3.38
     1.030664          0.40
     1.025087          0.07
     1.023714         30.91
     1.023677          3.11
     1.022310          1.27
     1.018241          0.10
     1.018189          2.40
     1.015482         14.61
     1.011451          2.26
##############################################################################
###                            Comments                                    ###
##############################################################################
###   Diffraction pattern calculated by Match!. 
###   I/Ic calculated by Match!. 
###   Space group has been derived from given symmetry operations. 
##############################################################################


