##############################################################################
###               Crystal structure data exported by Match!                ###
##############################################################################
###                           Data published by:                           ###
###                                                                        ###
###               COD (Crystallography Open Database)
##############################################################################
data_4124056
_citation_journal_full    'Journal of the American Chemical Society'
_citation_journal_volume  '126'
_citation_page_first  '9769'
_citation_page_last   '9775'
_citation_year  '2004'
_citation_title  'Chemical evaluation of hypothetical uninodal zeolites'
loop_
_publ_author_name
  'Foster M.D.'
  'Paz F.A.A.'
  'Bell R.G.'
  'Friedrichs O.D.'
  'Klinowski J.'
_chemical_formula_sum  'O2 Si'
_chemical_name_common  'Silica'
_symmetry_space_group_name_H-M 'R -3 c'
_space_group_IT_number 167
_space_group_crystal_system 'trigonal (hexagonal axes)'
loop_
_symmetry_equiv_pos_as_xyz
   'x, y, z'
   'x+0.66667, y+0.33333, z+0.33333'
   'x+0.33333, y+0.66667, z+0.66667'
   '-y, x-y, z'
   '-y+0.66667, x-y+0.33333, z+0.33333'
   '-y+0.33333, x-y+0.66667, z+0.66667'
   '-x+y, -x, z'
   '-x+y+0.66667, -x+0.33333, z+0.33333'
   '-x+y+0.33333, -x+0.66667, z+0.66667'
   'x-y, -y, -z+0.5'
   'x-y+0.66667, -y+0.33333, -z+0.83333'
   'x-y+0.33333, -y+0.66667, -z+0.16667'
   '-x, -x+y, -z+0.5'
   '-x+0.66667, -x+y+0.33333, -z+0.83333'
   '-x+0.33333, -x+y+0.66667, -z+0.16667'
   'y, x, -z+0.5'
   'y+0.66667, x+0.33333, -z+0.83333'
   'y+0.33333, x+0.66667, -z+0.16667'
   '-x, -y, -z'
   '-x+0.66667, -y+0.33333, -z+0.33333'
   '-x+0.33333, -y+0.66667, -z+0.66667'
   'y, -x+y, -z'
   'y+0.66667, -x+y+0.33333, -z+0.33333'
   'y+0.33333, -x+y+0.66667, -z+0.66667'
   'x-y, x, -z'
   'x-y+0.66667, x+0.33333, -z+0.33333'
   'x-y+0.33333, x+0.66667, -z+0.66667'
   '-x+y, y, z+0.5'
   '-x+y+0.66667, y+0.33333, z+0.83333'
   '-x+y+0.33333, y+0.66667, z+0.16667'
   'x, x-y, z+0.5'
   'x+0.66667, x-y+0.33333, z+0.83333'
   'x+0.33333, x-y+0.66667, z+0.16667'
   '-y, -x, z+0.5'
   '-y+0.66667, -x+0.33333, z+0.83333'
   '-y+0.33333, -x+0.66667, z+0.16667'
_cell_length_a       10.24406
_cell_length_b       10.24406
_cell_length_c        4.45861
_cell_angle_alpha    90.0000
_cell_angle_beta     90.0000
_cell_angle_gamma   120.0000
_cell_formula_units_Z 18
loop_
_atom_site_label
_atom_site_fract_x
_atom_site_fract_y
_atom_site_fract_z
_atom_site_occupancy
_atom_site_B_iso_or_equiv
si      0.822   0.000   0.250    1.00000    1.000
o      0.537   0.204   0.583    1.00000    1.000
o      0.833   0.167   0.167    1.00000    1.000
_cell_measurement_wavelength    1.541874
_cell_measurement_radiation   'x-rays'
_exptl_crystal_density_diffrn    4.432000
loop_
_pd_peak_d_spacing
_pd_peak_intensity
     5.122030        184.29
     3.983798          0.00
     3.144621          0.00
     2.957205        670.54
     2.679868        447.59
     2.561015         16.56
     2.162088       1000.00
     2.154270         97.39
     1.991899        100.80
     1.985781          0.00
     1.935945          0.40
     1.856459         40.83
     1.851503          0.23
     1.707343        154.45
     1.652074         36.96
     1.648578          0.00
     1.572310         45.36
     1.569296         99.95
     1.503086         40.77
     1.500452         12.82
     1.478603        425.82
     1.427332         20.46
     1.420595          1.06
     1.388280        118.68
     1.386204        200.98
     1.339934         66.69
     1.327933          0.00
     1.296311        154.54
     1.294620          0.67
     1.285435         58.01
     1.280507          2.92
     1.220491         23.19
     1.219080         23.90
     1.185952         10.08
     1.178878          0.00
     1.175074          0.61
     1.156587         87.28
     1.120991         37.56
     1.117719         21.68
     1.105957         35.87
     1.101773         47.17
     1.100734          1.43
     1.081044          9.27
     1.077135         19.59
     1.076164          0.00
     1.057742         26.99
     1.053170         67.74
     1.048207          0.00
     1.026923         25.78
     1.024406          2.81
     1.015328         23.50
     1.012088          1.02
     1.011282         35.21
##############################################################################
###                            Comments                                    ###
##############################################################################
###   Diffraction pattern calculated by Match!. 
###   I/Ic calculated by Match!. 
##############################################################################


