##############################################################################
###               Crystal structure data exported by Match!                ###
##############################################################################
###                           Data published by:                           ###
###                                                                        ###
###               COD (Crystallography Open Database)
##############################################################################
data_8103581
_citation_journal_full    'Zeitschrift fuer Kristallographie (149,1979-)'
_citation_journal_volume  '153'
_citation_page_first  '141'
_citation_page_last   '149'
_citation_year  '1980'
_citation_title  'The cation distribution in two (Co, Mg)3 (P O4)2 solid solutions'
loop_
_publ_author_name
  'Nord A.G.'
  'Stetanidis T.'
_chemical_formula_sum  'Co3 Mg3 O16 P4'
_chemical_name_common  'Co3 Mg3 (P O4)4'
_symmetry_space_group_name_H-M 'P 1 21/n 1'
_space_group_IT_number 14
_space_group_crystal_system 'monoclinic'
loop_
_symmetry_equiv_pos_as_xyz
   'x, y, z'
   '-x+0.5, y+0.5, -z+0.5'
   '-x, -y, -z'
   'x+0.5, -y+0.5, z+0.5'
_cell_length_a        7.58600
_cell_length_b        8.30000
_cell_length_c        5.07400
_cell_angle_alpha    90.0000
_cell_angle_beta     94.1900
_cell_angle_gamma    90.0000
_cell_formula_units_Z 1
loop_
_atom_site_label
_atom_site_fract_x
_atom_site_fract_y
_atom_site_fract_z
_atom_site_occupancy
_atom_site_B_iso_or_equiv
co      0.615   0.137   0.096    0.55000    1.000
mg      0.615   0.137   0.096    0.45000    1.000
o      0.116   0.198   0.320    1.00000    1.000
o      0.351   0.078   0.042    1.00000    1.000
o      0.277   0.362   0.958    1.00000    1.000
mg      0.000   0.000   0.500    0.59970    1.000
p      0.197   0.199   0.050    1.00000    1.000
co      0.000   0.000   0.500    0.40000    1.000
o      0.056   0.147   0.830    1.00000    1.000
_cell_measurement_wavelength    1.541874
_cell_measurement_radiation   'x-rays'
_exptl_crystal_density_diffrn    3.281000
loop_
_pd_peak_d_spacing
_pd_peak_intensity
     5.591381         54.08
     4.355915        576.27
     4.320707        181.21
     4.150000        113.40
     4.071057        374.73
     3.857021        449.99
     3.782862          4.89
     3.655064         42.25
     3.638558          4.70
     3.442206       1000.00
     3.208924        224.88
     3.004652        194.10
     2.938463          0.62
     2.906181         44.23
     2.795691        141.57
     2.762045         96.79
     2.598382         16.16
     2.530219        232.02
     2.505005        294.05
     2.427547        318.45
     2.420259         46.65
     2.412982        124.59
     2.393000         50.31
     2.353407          2.85
     2.335411         30.53
     2.326008          7.77
     2.288262         61.17
     2.259804          5.72
     2.239722         85.83
     2.233144          5.84
     2.194055         24.38
     2.177957          1.04
     2.160354         11.06
     2.155174          3.70
     2.121194        162.47
     2.112408         97.28
     2.106637         15.15
     2.076402        135.79
     2.075000         49.93
     2.043933        160.87
     2.035529         55.54
     2.029038          0.00
     2.011263          1.67
     2.001103          9.10
     1.976945          4.19
     1.939660          0.41
     1.928510         33.24
     1.919868         15.76
     1.891431         16.09
     1.873310         43.73
     1.867141         11.19
     1.863794         24.63
     1.848711         12.49
     1.844153          1.65
     1.835927         78.06
     1.827532         65.83
     1.819279          5.86
     1.810571          4.30
     1.790437         10.83
     1.780399         12.90
     1.773811         96.61
     1.731483         59.60
     1.721103         13.62
     1.719097          3.80
     1.711321         10.05
     1.694290         70.61
     1.693709         38.49
     1.693167         19.19
     1.688261         92.57
     1.672549          8.45
     1.663503         18.79
     1.653021         11.87
     1.639591         71.22
     1.639582          0.02
     1.621430         68.34
     1.621419          0.44
     1.604462          0.00
     1.602337          1.80
     1.597385         25.05
     1.592330          0.26
     1.591339          4.84
     1.584525          3.12
     1.577304          6.06
     1.570979          0.14
     1.562661         97.66
     1.561420         25.35
     1.556152          0.54
     1.555003          3.65
     1.551300         26.54
     1.551178          2.41
     1.548414         17.99
     1.543573          0.94
     1.540879        145.65
     1.537126         27.30
     1.520083         48.35
     1.518029          4.01
     1.510243         10.74
     1.507579        113.19
     1.502326          0.27
     1.488610         47.40
     1.480067          0.92
     1.479700          4.01
     1.476427         34.88
     1.469232          8.27
     1.467742         17.34
     1.467285          0.05
     1.464490          9.41
     1.463364          8.15
     1.456732          0.04
     1.453090         49.44
     1.451972         43.52
     1.444185         43.34
     1.442212         24.55
     1.440236          2.80
     1.431327          7.67
     1.430252          0.86
     1.421597          0.69
     1.421496         14.09
     1.410976          7.45
     1.401096         16.41
     1.398888          7.19
     1.397845         31.33
     1.393756         22.08
     1.387954          3.27
     1.386578         10.38
     1.383333         17.96
     1.383049          3.20
     1.381022          2.37
     1.374988         22.95
     1.374805         28.38
     1.370510          5.47
     1.366455          3.14
     1.366108         39.41
     1.360774         51.91
     1.357019          0.01
     1.355564          2.57
     1.351192         15.22
     1.344793         28.48
     1.339238          0.23
     1.334375          0.03
     1.329092         18.34
     1.327565         11.57
     1.326176         11.65
     1.325340         22.14
     1.323801          9.44
     1.320240          0.96
     1.318902         13.20
     1.318445          6.94
     1.309783          1.13
     1.308889          7.04
     1.304805          1.03
     1.302191          7.11
     1.299191          3.16
     1.294340          1.45
     1.291327          3.17
     1.289814          1.54
     1.286450          2.14
     1.285674          7.39
     1.277621         18.47
     1.277385         31.96
     1.266056          6.01
     1.265110          0.00
     1.264372          2.24
     1.260954          0.28
     1.259195         12.31
     1.252503          6.45
     1.250844          6.20
     1.250665         32.53
     1.248515         15.04
     1.247642          4.13
     1.246849          0.81
     1.246650          0.95
     1.244528         11.62
     1.237088          0.51
     1.231293          8.21
     1.227062         10.43
     1.225170          0.30
     1.222598          1.01
     1.219823          1.57
     1.218355          5.81
     1.215822          0.21
     1.213869          3.37
     1.213774          3.07
     1.212853          0.72
     1.210129          3.13
     1.208182          5.72
     1.207863          9.59
     1.206491          3.24
     1.205073          0.18
     1.204752          6.45
     1.204567          8.00
     1.202732          7.11
     1.198023          4.59
     1.196500          9.00
     1.195886          0.07
     1.192555          0.52
     1.191932         31.34
     1.190649          0.34
     1.189644          0.01
     1.188957          8.41
     1.183163          0.87
     1.182125          1.26
     1.181949          0.43
     1.178209          5.35
     1.176703          0.45
     1.174263         11.18
     1.172707          5.40
     1.171416          0.31
     1.170167          0.55
     1.169645          1.01
     1.167706          4.28
     1.166550         18.92
     1.163004          1.06
     1.162685          6.02
     1.159916          1.62
     1.158202         33.49
     1.155515          0.04
     1.154447          2.17
     1.154123          0.36
     1.151752          0.03
     1.150530          0.00
     1.148856          2.92
     1.147402          3.47
     1.146076          4.31
     1.145747          0.91
     1.144131          0.74
     1.144085          0.19
     1.141023          6.98
     1.138412          3.74
     1.135711          8.86
     1.135395          0.52
     1.131436          0.96
     1.129902         19.39
     1.127199          3.82
     1.126383          2.95
     1.125786          4.37
     1.122040          0.45
     1.121690         10.22
     1.119861          0.05
     1.118276          2.17
     1.116572          0.92
     1.113084          5.73
     1.112885          2.40
     1.109348          3.61
     1.108988          1.51
     1.106050          4.66
     1.104571          0.50
     1.103291         12.08
     1.100378          9.14
     1.099071          1.01
     1.098201          6.85
     1.097028          4.38
     1.092892          2.31
     1.089564          2.01
     1.088979          4.19
     1.087569          1.24
     1.087561          1.74
     1.080931          0.22
     1.080583          1.65
     1.080177         10.00
     1.079725          1.38
     1.079717         14.03
     1.079014          6.31
     1.078791          0.84
     1.078343          6.88
     1.077587          8.17
     1.077326          0.96
     1.076216          7.41
     1.074041         20.50
     1.073669          0.19
     1.073115          3.89
     1.073031         13.84
     1.072130          1.45
     1.071769          1.36
     1.069641          2.06
     1.067633          3.71
     1.067623          1.96
     1.065977          3.35
     1.064257         12.92
     1.062447          6.01
     1.060597          2.44
     1.060120          3.10
     1.058463          7.72
     1.056377          0.44
     1.056204          0.10
     1.053319          3.37
     1.052372          0.00
     1.052035          1.32
     1.050635          0.03
     1.048843          1.98
     1.045928         13.82
     1.043885          6.46
     1.043133          1.12
     1.042003          9.07
     1.041548         10.63
     1.041388          1.08
     1.040801          1.21
     1.039080          1.56
     1.038943          0.06
     1.038201          0.68
     1.037500          1.08
     1.033443          6.98
     1.027880          7.64
     1.027021         11.61
     1.024562          0.30
     1.021967         10.11
     1.021429          1.37
     1.020978          2.89
     1.019785          3.41
     1.018918          0.77
     1.017764          7.15
     1.017022          0.58
     1.016359          0.11
     1.016138          2.94
     1.015481          1.74
     1.014519         17.58
     1.013611          2.21
     1.013310          2.90
     1.012925          1.97
     1.012167          0.00
     1.010516          0.00
     1.010218          0.08
     1.010198          7.91
     1.009267         18.37
     1.006725         13.43
##############################################################################
###                            Comments                                    ###
##############################################################################
###   Diffraction pattern calculated by Match!. 
###   I/Ic calculated by Match!. 
##############################################################################


