##############################################################################
###               Crystal structure data exported by Match!                ###
##############################################################################
###                           Data published by:                           ###
###                                                                        ###
###               COD (Crystallography Open Database)
##############################################################################
data_9000965
_citation_journal_full    'American Mineralogist'
_citation_journal_volume  '70'
_citation_page_first  '590'
_citation_page_last   '600'
_citation_year  '1985'
_citation_title  'High-temperature structure refinements of calcite and magnesiteSample: T = 24 C'
loop_
_publ_author_name
  'Markgraf S. A.'
  'Reeder R. J.'
_chemical_formula_sum  'C Ca O3'
_chemical_name_mineral  'Calcite'
_symmetry_space_group_name_H-M 'R -3 c'
_space_group_IT_number 167
_space_group_crystal_system 'trigonal (hexagonal axes)'
loop_
_symmetry_equiv_pos_as_xyz
   'x, y, z'
   'x+0.66667, y+0.33333, z+0.33333'
   'x+0.33333, y+0.66667, z+0.66667'
   '-y, x-y, z'
   '-y+0.66667, x-y+0.33333, z+0.33333'
   '-y+0.33333, x-y+0.66667, z+0.66667'
   '-x+y, -x, z'
   '-x+y+0.66667, -x+0.33333, z+0.33333'
   '-x+y+0.33333, -x+0.66667, z+0.66667'
   'x-y, -y, -z+0.5'
   'x-y+0.66667, -y+0.33333, -z+0.83333'
   'x-y+0.33333, -y+0.66667, -z+0.16667'
   '-x, -x+y, -z+0.5'
   '-x+0.66667, -x+y+0.33333, -z+0.83333'
   '-x+0.33333, -x+y+0.66667, -z+0.16667'
   'y, x, -z+0.5'
   'y+0.66667, x+0.33333, -z+0.83333'
   'y+0.33333, x+0.66667, -z+0.16667'
   '-x, -y, -z'
   '-x+0.66667, -y+0.33333, -z+0.33333'
   '-x+0.33333, -y+0.66667, -z+0.66667'
   'y, -x+y, -z'
   'y+0.66667, -x+y+0.33333, -z+0.33333'
   'y+0.33333, -x+y+0.66667, -z+0.66667'
   'x-y, x, -z'
   'x-y+0.66667, x+0.33333, -z+0.33333'
   'x-y+0.33333, x+0.66667, -z+0.66667'
   '-x+y, y, z+0.5'
   '-x+y+0.66667, y+0.33333, z+0.83333'
   '-x+y+0.33333, y+0.66667, z+0.16667'
   'x, x-y, z+0.5'
   'x+0.66667, x-y+0.33333, z+0.83333'
   'x+0.33333, x-y+0.66667, z+0.16667'
   '-y, -x, z+0.5'
   '-y+0.66667, -x+0.33333, z+0.83333'
   '-y+0.33333, -x+0.66667, z+0.16667'
_cell_length_a        4.98800
_cell_length_b        4.98800
_cell_length_c       17.06100
_cell_angle_alpha    90.0000
_cell_angle_beta     90.0000
_cell_angle_gamma   120.0000
loop_
_atom_site_label
_atom_site_fract_x
_atom_site_fract_y
_atom_site_fract_z
_atom_site_occupancy
_atom_site_B_iso_or_equiv
ca      0.000   0.000   0.000    1.00000    0.936
c      0.000   0.000   0.250    1.00000    0.907
o      0.257   0.000   0.250    1.00000    1.607
_cell_measurement_wavelength    1.541874
_cell_measurement_radiation   'x-rays'
_cell_measurement_temperature    297.100000
_exptl_crystal_density_diffrn    2.713000
loop_
_pd_peak_d_spacing
_pd_peak_intensity
     3.853792         83.97
     3.035067       1000.00
     2.843500         20.45
     2.494000        144.18
     2.284020        186.53
     2.093796        145.96
     1.926896         65.40
     1.912277        197.19
     1.874985        203.96
     1.625281         33.63
     1.603598         97.35
     1.586820          9.75
     1.524809         57.17
     1.517534         26.54
     1.509192         27.35
     1.472788         20.16
     1.439912         66.65
     1.421750         37.31
     1.356474         12.95
     1.338805         22.91
     1.296403         30.07
     1.284597          6.32
     1.247000         12.25
     1.235148         22.62
     1.218061          0.22
     1.195136          0.05
     1.186435          6.11
     1.179591         25.20
     1.172864          3.45
     1.153439         47.07
     1.142010         23.18
     1.130423          0.03
     1.124499          4.80
     1.075198          0.03
     1.071382          0.02
     1.061358          8.83
     1.046898         29.33
     1.044535         33.43
     1.041803          0.11
     1.035239         15.48
     1.034862          3.95
     1.022897          3.16
     1.011689         32.63
##############################################################################
###                            Comments                                    ###
##############################################################################
###   Diffraction pattern calculated by Match!. 
###   I/Ic calculated by Match!. 
##############################################################################


