##############################################################################
###               Crystal structure data exported by Match!                ###
##############################################################################
###                           Data published by:                           ###
###                                                                        ###
###               COD (Crystallography Open Database)
##############################################################################
data_1010950
_citation_journal_full    'Proceedings of the Royal Society of London, Series A: Mathematical and Physical Sciences (76,1906-)'
_citation_journal_volume  '109'
_citation_page_first  '598'
_citation_page_last   '620'
_citation_year  '1925'
_citation_title  'The Crystal Structures of Barytes, Celestine and Anglesite'
loop_
_publ_author_name
  'James R W'
_chemical_formula_sum  'O4 Pb S'
_chemical_name_mineral  'Anglesite'
_chemical_name_common  'Lead sulfate'
_symmetry_space_group_name_H-M 'P n m a'
_space_group_IT_number 62
_space_group_crystal_system 'orthorhombic'
loop_
_symmetry_equiv_pos_as_xyz
   'x, y, z'
   '-x+0.5, -y, z+0.5'
   'x+0.5, -y+0.5, -z+0.5'
   '-x, y+0.5, -z'
   '-x, -y, -z'
   'x+0.5, y, -z+0.5'
   '-x+0.5, y+0.5, z+0.5'
   'x, -y+0.5, z'
_cell_length_a        8.45000
_cell_length_b        5.38000
_cell_length_c        6.93000
_cell_angle_alpha    90.0000
_cell_angle_beta     90.0000
_cell_angle_gamma    90.0000
_cell_formula_units_Z 4
loop_
_atom_site_label
_atom_site_fract_x
_atom_site_fract_y
_atom_site_fract_z
_atom_site_occupancy
_atom_site_B_iso_or_equiv
pb      0.315   0.250   0.338    1.00000    1.000
s      0.443   0.250   -0.195    1.00000    1.000
o      -1.000   -1.000   -1.000    -2.55360    1.000
_cell_measurement_wavelength    1.541874
_cell_measurement_radiation   'x-rays'
_exptl_crystal_density_diffrn    6.392000
loop_
_pd_peak_d_spacing
_pd_peak_intensity
     5.358435         29.62
     4.249685       1000.00
     4.225000        641.41
     3.796587        680.34
     3.607430        380.52
     3.465000        424.99
     3.322838        822.79
     3.205931        769.93
     2.996215        861.57
     2.754035        287.51
     2.690000        618.28
     2.679217          0.01
     2.609370        318.74
     2.404071        123.79
     2.398284        159.59
     2.347796         43.26
     2.269118         53.15
     2.228239         83.02
     2.185636         15.67
     2.156460        190.47
     2.124843         46.76
     2.122612          7.89
     2.112500          9.34
     2.060690        428.44
     2.058655        444.01
     2.026838          3.25
     2.024917        352.17
     2.020700        273.24
     1.966346        182.83
     1.898294         74.32
     1.896703          0.01
     1.891670          2.82
     1.872960         48.86
     1.803715          4.95
     1.786145        125.45
     1.736144         85.33
     1.732500         44.80
     1.715986          3.65
     1.710162         36.94
     1.700620         66.36
     1.697195         97.10
     1.696299         14.19
     1.695164         60.66
     1.661419          2.02
     1.650782         96.00
     1.641883         12.92
     1.618769          2.92
     1.618567         54.57
     1.615637        252.54
     1.605850        119.05
     1.602966          8.23
     1.570381         19.68
     1.565108         45.31
     1.558918          0.00
     1.536227         36.86
     1.518961         10.73
     1.498108          6.01
     1.497325          0.00
     1.490296         31.71
     1.487995        257.19
     1.477943          8.86
     1.475693          1.96
     1.461815        106.69
     1.456549         14.69
     1.435381        105.35
     1.423128         78.73
     1.416562          1.82
     1.408333         11.73
     1.401453         60.09
     1.397067        115.18
     1.386381         93.59
     1.380122         12.98
     1.377017         46.71
     1.367724          1.16
     1.367143         51.24
     1.363950         77.93
     1.362427         38.78
     1.348791          0.01
     1.345000         32.70
     1.343082          0.00
     1.342176         52.95
     1.341291          0.80
     1.339609          0.67
     1.336837         69.91
     1.325559         11.33
     1.322661         12.86
     1.322123         41.82
     1.316949         26.54
     1.304685         11.23
     1.304532          0.04
     1.299917         43.42
     1.293798          2.42
     1.281625         28.21
     1.279182         45.85
     1.271733         12.64
     1.267934         15.08
     1.265529         20.44
     1.260255         29.63
     1.253852         25.18
     1.247682         35.10
     1.243595         15.87
     1.240272         70.34
     1.232684         19.72
     1.227939         16.85
     1.219182          2.29
     1.216507         54.42
     1.211647          5.69
     1.210995          7.49
     1.209757          2.49
     1.202477          0.53
     1.202036          0.71
     1.199142          2.83
     1.195525         36.34
     1.195125         14.58
     1.189235          2.32
     1.182807         35.93
     1.180285         38.56
     1.176531          0.00
     1.173898          2.02
     1.173522          0.04
     1.161204         17.44
     1.159068         45.60
     1.158845         34.33
     1.155000         16.27
     1.151487         12.92
     1.145482          3.46
     1.144359          0.37
     1.139946         30.36
     1.139497         35.18
     1.134559          1.19
     1.132862          0.33
     1.128805          6.23
     1.120694          0.76
     1.119653         66.59
     1.119318          0.20
     1.115187          6.58
     1.114119         19.05
     1.107613         18.65
     1.103317          3.67
     1.097786          0.78
     1.096649         26.16
     1.093731         34.78
     1.092818         11.49
     1.090972         37.60
     1.087683          0.05
     1.087529          5.72
     1.085629         21.23
     1.078230          0.75
     1.074441         46.32
     1.073234         22.75
     1.071687          1.79
     1.070948          7.31
     1.069869          0.05
     1.068644          0.79
     1.064287         53.07
     1.063260         15.26
     1.062421         14.00
     1.061475         24.76
     1.061306         41.36
     1.056250         22.90
     1.055022          8.29
     1.054941         12.40
     1.054122         36.30
     1.053033          0.57
     1.051037          5.71
     1.049591         47.83
     1.049322         45.13
     1.048166          2.45
     1.044191          0.19
     1.042716         19.24
     1.040463          6.85
     1.036464          0.90
     1.031110         25.66
     1.030345          4.82
     1.029328         13.49
     1.025062         27.71
     1.021925          3.43
     1.020079         10.47
     1.018359          0.00
     1.013419          0.88
     1.012459          6.43
     1.010350          4.94
     1.006971          5.44
##############################################################################
###                            Comments                                    ###
##############################################################################
###   Diffraction pattern calculated by Match!. 
###   I/Ic calculated by Match!. 
##############################################################################


