##############################################################################
###               Crystal structure data exported by Match!                ###
##############################################################################
###                           Data published by:                           ###
###                                                                        ###
###               COD (Crystallography Open Database)
##############################################################################
data_9009908
_citation_journal_full    'Acta Chemica Scandinavica'
_citation_journal_volume  '25'
_citation_page_first  '411'
_citation_page_last   '422'
_citation_year  '1971'
_citation_title  'On the properties of binary compounds with the CoSb2 type crystal structure Locality: synthetic'
loop_
_publ_author_name
  'Kjekshus A.'
_chemical_formula_sum  'As2 Co'
_chemical_name_mineral  'Clinosafflorite'
_symmetry_space_group_name_H-M 'P 1 21/c 1'
_space_group_IT_number 14
_space_group_crystal_system 'monoclinic'
loop_
_symmetry_equiv_pos_as_xyz
   'x, y, z'
   '-x, y+0.5, -z+0.5'
   '-x, -y, -z'
   'x, -y+0.5, z+0.5'
_cell_length_a        5.91060
_cell_length_b        5.86800
_cell_length_c        5.95870
_cell_angle_alpha    90.0000
_cell_angle_beta    116.4320
_cell_angle_gamma    90.0000
loop_
_atom_site_label
_atom_site_fract_x
_atom_site_fract_y
_atom_site_fract_z
_atom_site_occupancy
_atom_site_B_iso_or_equiv
co      0.272   0.003   0.283    1.00000    1.000
as      0.341   0.365   0.175    1.00000    1.000
as      0.155   0.634   0.364    1.00000    1.000
_cell_measurement_wavelength    1.541874
_cell_measurement_radiation   'x-rays'
_exptl_crystal_density_diffrn    7.493000
loop_
_pd_peak_d_spacing
_pd_peak_intensity
     5.292726          9.63
     3.947751          1.03
     3.930211          0.62
     3.825302         86.92
     2.972919          3.43
     2.934000         75.07
     2.758820        122.11
     2.667899        375.28
     2.651986         52.32
     2.646363        418.04
     2.636072          0.16
     2.570958          3.56
     2.566094          4.05
     2.536212       1000.00
     2.522249         47.07
     2.428668        474.55
     2.412388        493.36
     2.317255        238.39
     2.139254          0.18
     2.088275          8.77
     2.080478         10.24
     2.044476         49.91
     1.973876         55.60
     1.965106         59.99
     1.930650          5.73
     1.924484          8.32
     1.915195         18.13
     1.912651        109.19
     1.868976        281.19
     1.854165        313.01
     1.836493         11.62
     1.834718          0.28
     1.829399         61.51
     1.823702        206.32
     1.820676          1.01
     1.764242          5.08
     1.702129         25.28
     1.689532          0.29
     1.677400         10.38
     1.673352          1.43
     1.658122        412.16
     1.636476        120.10
     1.634042          7.60
     1.630299          0.71
     1.626505        134.65
     1.616443        239.99
     1.609710          0.93
     1.603758          0.25
     1.577458         62.35
     1.572971         68.38
     1.562914        191.23
     1.545679         34.00
     1.520958         24.74
     1.511951          5.04
     1.510263          0.02
     1.486459         22.10
     1.475275         24.88
     1.467000         32.45
     1.458894         21.46
     1.456202          4.86
     1.450302          0.43
     1.443349          0.30
     1.440946         11.44
     1.430751         11.72
     1.414513          0.34
     1.413701          0.61
     1.413344          1.43
     1.413333          0.83
     1.410920          9.91
     1.408643          7.22
     1.407236          1.26
     1.401334          0.08
     1.388603          6.52
     1.382496          5.69
     1.379410          4.46
     1.372138          4.67
     1.368446          0.43
     1.368435         13.30
     1.363316          4.30
     1.333949          9.30
     1.333273         98.07
     1.328019          0.01
     1.327865        101.10
     1.325993         21.52
     1.323181          8.54
     1.318036         27.84
     1.315917          2.99
     1.315551          2.78
     1.313595          0.47
     1.310070          0.17
     1.304381         10.31
     1.300763         23.62
     1.294931          0.05
     1.290773         33.41
     1.285479          0.01
     1.283047          0.06
     1.275101         11.97
     1.268838          3.51
     1.268106        111.38
     1.264754         12.34
     1.261125          6.47
     1.239470         10.05
     1.232971         39.10
     1.221005          0.00
     1.215280          0.99
     1.214334          9.30
     1.212712          0.57
     1.206194         13.51
     1.191908          0.00
     1.190453          0.01
     1.188660         24.39
     1.184822         31.91
     1.183492          3.38
     1.180400          2.97
     1.177824          3.14
     1.176956          1.55
     1.175434          1.62
     1.173230          2.33
     1.168049          0.35
     1.166880          0.14
     1.166673         16.96
     1.164607          5.19
     1.161249          5.07
     1.158627          9.37
     1.157218          2.27
     1.152538          8.65
     1.150449          6.33
     1.146202          1.11
     1.146004          5.01
     1.145770          0.06
     1.143910          2.51
     1.143520         10.01
     1.143073         20.91
     1.142320          3.39
     1.141768          4.44
     1.139337          1.84
     1.131712          0.78
     1.128512         35.07
     1.127987          1.40
     1.118741         57.22
     1.105434          0.48
     1.103098         16.17
     1.102063          6.91
     1.101670          3.48
     1.098712         40.40
     1.095968         11.05
     1.095096          0.41
     1.091620          2.12
     1.091128          5.96
     1.090502          0.08
     1.089354         36.84
     1.086047          0.20
     1.085578          0.48
     1.083466         48.62
     1.082754          6.04
     1.074255         37.70
     1.072834         36.95
     1.070675          5.46
     1.069627         25.53
     1.064054         20.75
     1.062320          7.15
     1.059919         13.62
     1.058545          2.25
     1.049938         25.82
     1.048617         14.20
     1.047681          1.84
     1.046966          0.14
     1.045051          2.84
     1.044138         62.50
     1.041731          0.01
     1.040239         78.47
     1.034207         13.98
     1.033487         24.82
     1.031362          0.01
     1.028767          0.06
     1.025896         10.03
     1.022238          5.64
     1.018579          9.13
     1.017826          0.39
     1.016919          2.14
     1.016910          0.02
     1.015537          8.54
     1.013439          0.13
     1.010631          0.68
     1.008467          0.00
     1.007509          3.56
     1.007071         18.37
##############################################################################
###                            Comments                                    ###
##############################################################################
###   Diffraction pattern calculated by Match!. 
###   I/Ic calculated by Match!. 
##############################################################################


