##############################################################################
###               Crystal structure data exported by Match!                ###
##############################################################################
###                           Data published by:                           ###
###                                                                        ###
###               COD (Crystallography Open Database)
##############################################################################
data_1533609
_citation_journal_full    'Materials Research Society Symposia Proceedings'
_citation_journal_volume  '755'
_citation_page_first  '465'
_citation_page_last   '470'
_citation_year  '2003'
_citation_title  'Reinvestigation of the incommensurate structure of alpha-(Pb O)'
loop_
_publ_author_name
  'Baldinozzi G.'
  'Raulot J.M.'
  'Petricek V.'
_chemical_formula_sum  'O Pb'
_chemical_name_common  'Lead(II) oxide'
_symmetry_space_group_name_H-M 'P b m a'
_space_group_IT_number 57
_space_group_crystal_system 'orthorhombic'
loop_
_symmetry_equiv_pos_as_xyz
   'x, y, z'
   '-x+0.5, -y, z'
   'x+0.5, -y+0.5, -z'
   '-x, y+0.5, -z'
   '-x, -y, -z'
   'x+0.5, y, -z'
   '-x+0.5, y+0.5, z'
   'x, -y+0.5, z'
_cell_length_a        5.60990
_cell_length_b       44.86080
_cell_length_c        4.99790
_cell_angle_alpha    90.0000
_cell_angle_beta     90.0000
_cell_angle_gamma    90.0000
_cell_formula_units_Z 32
loop_
_atom_site_label
_atom_site_fract_x
_atom_site_fract_y
_atom_site_fract_z
_atom_site_occupancy
_atom_site_B_iso_or_equiv
pb      0.263   0.375   0.763    1.00000    1.000
o      0.521   0.031   0.977    1.00000    1.000
pb      0.257   0.688   0.237    1.00000    1.000
o      0.521   0.406   0.977    1.00000    1.000
pb      0.266   0.437   0.237    1.00000    1.000
o      0.521   0.719   0.023    1.00000    1.000
o      0.521   0.344   0.023    1.00000    1.000
pb      0.268   0.750   0.763    1.00000    1.000
pb      0.250   0.500   0.763    1.00000    1.000
_cell_measurement_wavelength    1.541874
_cell_measurement_radiation   'x-rays'
_exptl_crystal_density_diffrn    9.429000
loop_
_pd_peak_d_spacing
_pd_peak_intensity
    11.215200          0.00
     7.476800          0.01
     4.997900         24.19
     4.486080          0.01
     4.155073          0.00
     3.738400          0.00
     3.718890          0.01
     3.681138          0.00
     3.620694          0.00
     3.445586          3.01
     3.338955          0.00
     3.338470          0.00
     3.224853          0.00
     3.106694       1000.00
     2.987304          0.00
     2.868893          0.00
     2.804950        157.76
     2.803800        160.92
     2.799483          0.00
     2.756869          3.48
     2.753104          2.94
     2.721136          0.00
     2.677171          0.00
     2.641088          0.00
     2.626224          0.00
     2.569606          0.01
     2.533600          0.00
     2.498950        114.62
     2.446057          0.00
     2.445294          0.00
     2.444485          0.01
     2.442429          0.01
     2.431079          0.01
     2.413974          0.01
     2.378319          0.03
     2.370076          0.00
     2.359927          0.00
     2.333733          0.00
     2.324807          0.00
     2.311092          0.00
     2.285257          0.01
     2.279764          0.01
     2.270984          0.00
     2.256573          0.00
     2.243629          0.00
     2.243040          0.00
     2.212237          0.01
     2.195902          0.01
     2.183229          0.00
     2.183093          0.00
     2.176606          2.79
     2.154592          0.00
     2.150375          0.00
     2.147563          0.00
     2.114249          8.44
     2.097680          0.00
     2.077536          0.00
     2.075429          0.00
     2.072552          0.03
     2.045923          0.00
     2.039127          0.01
     2.034473          0.00
     1.995573          0.12
     1.995263          0.00
     1.991912          0.13
     1.982992        152.83
     1.948230          0.00
     1.922481          0.00
     1.921996          0.00
     1.903863          0.00
     1.893421          0.00
     1.888031          0.00
     1.865867        120.98
     1.865529        124.33
     1.864256          0.00
     1.859194          0.00
     1.853950          0.83
     1.851510          3.20
     1.843211          4.57
     1.840569          0.00
     1.826783          0.00
     1.814552          0.00
     1.810347          0.00
     1.806335          1.53
     1.793919          0.00
     1.791483          0.00
     1.789408          0.00
     1.751800          0.00
     1.750060          0.00
     1.747450          0.00
     1.746078          0.05
     1.739503          0.00
     1.730420          0.00
     1.728596          0.00
     1.726416          0.00
     1.725415          0.01
     1.722793          0.02
     1.718950          4.90
     1.705235          0.00
     1.699480          0.00
     1.698788          0.07
     1.696719          0.00
     1.689442          0.00
     1.683339          0.00
     1.671753        143.81
     1.671266        151.08
     1.669477          0.00
     1.669235          0.00
     1.665967          1.19
     1.653190          0.00
     1.652362          0.00
     1.649350          0.00
     1.641306          1.40
     1.641133          0.00
     1.631469          0.00
     1.630960          0.00
     1.626090          0.00
     1.617181          0.00
     1.609274          3.44
     1.609002          0.00
     1.602171          0.00
     1.601365          0.00
     1.596022          0.00
     1.593000          0.00
     1.588002          0.00
     1.585975          0.00
     1.583045          0.00
     1.579890          0.01
     1.572319          0.62
     1.566266          0.00
     1.566116          0.00
     1.561802          0.00
     1.561763          0.00
     1.561752          0.00
     1.559758          0.05
     1.553347         98.75
     1.549641          0.00
     1.536820          0.00
     1.535956        105.87
     1.524998          0.00
     1.523500          0.00
     1.520877          0.00
     1.520734          0.00
     1.517861          0.28
     1.511579          0.00
     1.511317          0.00
     1.504538          0.00
     1.496360          0.00
     1.493869          0.00
     1.489745          0.00
     1.487077          0.15
     1.482877          0.00
     1.476774          0.13
     1.472220          0.00
     1.469630          0.01
     1.468635          0.00
     1.468050          0.00
     1.463931          0.96
     1.459249          0.00
     1.457936          0.00
     1.449346          0.00
     1.446854          0.00
     1.446523          2.17
     1.446207          2.28
     1.434447          0.00
     1.433906          0.00
     1.432956          0.03
     1.432371          3.60
     1.432218          3.72
     1.431641          0.00
     1.429536          0.00
     1.429345          0.00
     1.429011          0.00
     1.425845          0.11
     1.420188          0.00
     1.419852          0.00
     1.414459          0.00
     1.410733          0.00
     1.409938          0.00
     1.408759          0.00
     1.406788          0.00
     1.406651          0.00
     1.405475          0.02
     1.405294          0.00
     1.402475         20.21
     1.401900         22.55
     1.401790          0.00
     1.397881          0.00
     1.396347          2.24
     1.391636          0.00
     1.389874          0.00
     1.388065          0.01
     1.385649          0.00
     1.380434          0.00
     1.378434          0.02
     1.376658          0.00
     1.376552          0.00
     1.376450          0.00
     1.374420          0.00
     1.373492          0.00
     1.370052          0.00
     1.366303          0.00
     1.364505          0.00
     1.356434          0.00
     1.354582          0.36
     1.354394          1.78
     1.351440          0.00
     1.350318          0.55
     1.350053          0.00
     1.349805          0.65
     1.349707          0.00
     1.349226          0.00
     1.348766          0.00
     1.348285          0.00
     1.344846          0.09
     1.344649          0.00
     1.343344          0.00
     1.340636          0.00
     1.338802          0.00
     1.338585          0.03
     1.337428          0.00
     1.335280          0.00
     1.328821          0.00
     1.328607          0.00
     1.326244          0.00
     1.322933          0.02
     1.322842          0.00
     1.321307          0.00
     1.311396          0.00
     1.307413          0.00
     1.303340          0.00
     1.303138          0.00
     1.302203          0.00
     1.300967          0.00
     1.299271          1.20
     1.293372          0.00
     1.293013          0.00
     1.291850          0.00
     1.290134          0.00
     1.286054          0.00
     1.283416          0.00
     1.281880          0.00
     1.280579          0.00
     1.279102          0.09
     1.278041         53.40
     1.277306          0.00
     1.275559          1.95
     1.269790          0.00
     1.266800          0.02
     1.264414          0.00
     1.258876          0.00
     1.257475          0.00
     1.257314          0.00
     1.254309         21.65
     1.254000         23.15
     1.253361          0.00
     1.250864          0.00
     1.249475         12.97
     1.246133          0.00
     1.245481          0.00
     1.245270          0.00
     1.243968          0.01
     1.243434          0.00
     1.242003          0.00
     1.240850          0.00
     1.239630          0.00
     1.238436          0.00
     1.236330          0.00
     1.235664          0.00
     1.232385          0.00
     1.232126          1.08
     1.230691          0.00
     1.229134          0.00
     1.227046          0.00
     1.226054          0.01
     1.224638          0.02
     1.223319          0.00
     1.223028         19.34
     1.222647         21.16
     1.222574          0.00
     1.222217          0.00
     1.221122          0.00
     1.219140          0.00
     1.218958          1.90
     1.217792          0.00
     1.216581          0.04
     1.216299          0.04
     1.215820          0.00
     1.215555          0.00
     1.214392         42.11
     1.214206         44.26
     1.212226          0.00
     1.211821          0.00
     1.209117          0.00
     1.208477          0.06
     1.207220          0.00
     1.206987          0.02
     1.206898          0.00
     1.206827          0.00
     1.205796          0.95
     1.205389          1.35
     1.203683          0.00
     1.203660          0.00
     1.202081          0.00
     1.201348          0.00
     1.198684          0.00
     1.198482          0.00
     1.198089          0.00
     1.192983          0.00
     1.191731          4.34
     1.190877          0.60
     1.189798          1.34
     1.189688          0.00
     1.189159          0.00
     1.188243          0.00
     1.187796          0.00
     1.187643          0.00
     1.185038          0.00
     1.184646          0.00
     1.182147          0.00
     1.181975          0.00
     1.180547          0.00
     1.180288          0.00
     1.179963          0.03
     1.176876          0.00
     1.172392          0.00
     1.172164          0.00
     1.172097          0.00
     1.172034          0.00
     1.171484          0.00
     1.170206          0.00
     1.168552          0.99
     1.168462          0.00
     1.167990          0.00
     1.165790          0.22
     1.162404          0.00
     1.159603          0.01
     1.159451          0.00
     1.159424          0.00
     1.156864          0.00
     1.155546          0.01
     1.154801          0.00
     1.154499          0.00
     1.153118          0.10
     1.152769          2.10
     1.151393          0.18
     1.149890          0.00
     1.149598          0.00
     1.148930          0.00
     1.148529          0.00
     1.143508          0.00
     1.142337          0.00
     1.141408          0.00
     1.141357         15.31
     1.141279         15.66
     1.140988          0.00
     1.139824          0.00
     1.138808          0.00
     1.138672          0.00
     1.138047          0.37
     1.137232          0.00
     1.135492          0.00
     1.135314          0.00
     1.132232          0.00
     1.132030          0.00
     1.131085          0.00
     1.130818          0.00
     1.129302          0.00
     1.128286          0.00
     1.125846          0.00
     1.125567          0.00
     1.125171          0.00
     1.123676          0.00
     1.121019         34.69
     1.120799         37.65
     1.119459          0.00
     1.117609          0.00
     1.115576          0.00
     1.115171          0.00
     1.112985          0.02
     1.112931          0.00
     1.112563          0.00
     1.112245          0.04
     1.111133          0.00
     1.110349          0.00
     1.110223          0.00
     1.109645          0.00
     1.107075          0.00
     1.106118          0.00
     1.105013          0.00
##############################################################################
###                            Comments                                    ###
##############################################################################
###   Diffraction pattern calculated by Match!. 
###   I/Ic calculated by Match!. 
###   Space group has been derived from given symmetry operations. 
##############################################################################


