##############################################################################
###               Crystal structure data exported by Match!                ###
##############################################################################
###                           Data published by:                           ###
###                                                                        ###
###               COD (Crystallography Open Database)
##############################################################################
data_9013728
_citation_journal_full    'American Mineralogist'
_citation_journal_volume  '95'
_citation_page_first  '348'
_citation_page_last   '361'
_citation_year  '2010'
_citation_title  'Factors responsible for crystal-chemical variations in the solid solutionsfrom illite to aluminoceladonite and from glauconite to celadoniteLocality: RussiaSample Name: Z1'
loop_
_publ_author_name
  'Drits V. A.'
  'Zviagina B. B.'
  'McCarty D. K.'
  'Salyn A. L.'
_chemical_formula_sum  'Al2 H2 K O12 Si4'
_chemical_name_mineral  'Celadonite'
_symmetry_space_group_name_H-M 'C 1 2/m 1'
_space_group_IT_number 12
_space_group_crystal_system 'monoclinic'
loop_
_symmetry_equiv_pos_as_xyz
   'x, y, z'
   'x+0.5, y+0.5, z'
   '-x, y, -z'
   '-x+0.5, y+0.5, -z'
   '-x, -y, -z'
   '-x+0.5, -y+0.5, -z'
   'x, -y, z'
   'x+0.5, -y+0.5, z'
_cell_length_a        5.22910
_cell_length_b        9.05100
_cell_length_c       10.14400
_cell_angle_alpha    90.0000
_cell_angle_beta    100.5900
_cell_angle_gamma    90.0000
loop_
_atom_site_label
_atom_site_fract_x
_atom_site_fract_y
_atom_site_fract_z
_atom_site_occupancy
_atom_site_B_iso_or_equiv
k      0.000   0.500   0.500    1.00000    1.000
al      0.500   0.167   0.000    1.00000    1.000
si      0.422   0.333   0.274    1.00000    1.000
o      0.365   0.328   0.113    1.00000    1.000
o      0.451   0.500   0.332    1.00000    1.000
o      0.696   0.252   0.336    1.00000    1.000
o      0.408   0.000   0.113    1.00000    1.000
_cell_measurement_wavelength    1.541874
_cell_measurement_radiation   'x-rays'
_exptl_crystal_density_diffrn    2.811000
loop_
_pd_peak_d_spacing
_pd_peak_intensity
     9.971222        204.03
     4.985611        209.77
     4.525500        429.43
     4.469584         10.33
     4.346045        329.50
     4.120933        175.92
     3.855104         39.66
     3.628689       1000.00
     3.350897        373.70
     3.323741        319.18
     3.091498        867.56
     2.898092        289.08
     2.678857        415.75
     2.607180        168.11
     2.601903        407.01
     2.576850        380.01
     2.570018        229.61
     2.492805         18.89
     2.483815         55.67
     2.477300         19.19
     2.462263         43.08
     2.400071        400.95
     2.385001        230.70
     2.342134         60.75
     2.262750         31.33
     2.259097        119.43
     2.242290          4.23
     2.234792         83.28
     2.223392          9.61
     2.206646        148.84
     2.183465          1.92
     2.173023         39.44
     2.148089        201.40
     2.130468        102.73
     2.109924         96.54
     2.060466          4.97
     2.042654          0.93
     2.009185         33.16
     1.994244        187.15
     1.980477         44.34
     1.962114        115.06
     1.940214         15.93
     1.927552          8.53
     1.889987          3.15
     1.873335          0.13
     1.870446          0.14
     1.824912          1.31
     1.814345         54.28
     1.737803         19.72
     1.730897          2.41
     1.721776         21.31
     1.721683          2.65
     1.711462         37.44
     1.708899          2.32
     1.707410          1.47
     1.700272         15.21
     1.698305          4.16
     1.690163          6.16
     1.683448         20.76
     1.675449         41.69
     1.670717          1.43
     1.666081          4.73
     1.661870         12.59
     1.659080        279.83
     1.646413         86.23
     1.645973          9.07
     1.644661        121.57
     1.641524         48.39
     1.624707         50.31
     1.622304          0.44
     1.612838         14.82
     1.592723        103.00
     1.585908         76.46
     1.560010          1.87
     1.557887         23.90
     1.551126         30.50
     1.545749         10.62
     1.529576         62.08
     1.529036         37.79
     1.516169        115.33
     1.514250         62.87
     1.509175        239.35
     1.508500        125.06
     1.496114         18.04
     1.494510         16.27
     1.491528         19.64
     1.490275          1.79
     1.489861         17.59
     1.482403          6.46
     1.482226         29.97
     1.463697          5.43
     1.451623          1.79
     1.450552         10.51
     1.449046          5.41
     1.448682          1.62
     1.443855          0.08
     1.442983         11.39
     1.440249          0.34
     1.424668          7.77
     1.424460         13.14
     1.418860          0.75
     1.403141          1.90
     1.382253         66.27
     1.379632          0.87
     1.378240          2.18
     1.373644          0.01
     1.370204          0.22
     1.368740          0.14
     1.358740         23.49
     1.356025         59.25
     1.344953        111.54
     1.339429         31.75
     1.337966          6.35
     1.330370          6.94
     1.306490          0.30
     1.305695         82.74
     1.305240         44.53
     1.303590         42.61
     1.301509         23.02
     1.300952         98.83
     1.298965         72.86
     1.298493          1.80
     1.297077         34.92
     1.291489         12.46
     1.291165          0.04
     1.290591         35.29
     1.288425          0.00
     1.285035         37.54
     1.285009          0.01
     1.280301         19.52
     1.274893         49.59
     1.267210          1.01
     1.259555          1.33
     1.255536         13.91
     1.254120          0.00
     1.253934          0.05
     1.253546         11.13
     1.252656          9.29
     1.251623         29.18
     1.251099          4.50
     1.247054          2.48
     1.246403         22.71
     1.245777         16.80
     1.244350          7.91
     1.241907         27.13
     1.238650          0.21
     1.237287          0.40
     1.236142          2.58
     1.231949         28.14
     1.231131          0.01
     1.229167         17.29
     1.228984          2.89
     1.221811          7.46
     1.220055         14.63
     1.215005          5.50
     1.212361          2.50
     1.209563         19.34
     1.205481         34.29
     1.203366         31.18
     1.203208          5.70
     1.203078         20.89
     1.201660          0.12
     1.201099         20.72
     1.200036          0.00
     1.199444          0.05
     1.197371         16.43
     1.194708          5.70
     1.192501          0.57
     1.190986         10.23
     1.185216          2.48
     1.183770          4.37
     1.177946         12.06
     1.174927          6.92
     1.171145         20.01
     1.171067          5.68
     1.167186          2.46
     1.163150          9.32
     1.158853          0.97
     1.156224          1.28
     1.156140         14.70
     1.153832          2.45
     1.153138          3.46
     1.145238          4.46
     1.140919          2.54
     1.139177          4.91
     1.131375          0.02
     1.130697          1.19
     1.130622         10.69
     1.129549          0.01
     1.128194          5.05
     1.125304          0.16
     1.124162         11.20
     1.123139          1.71
     1.122630          3.45
     1.121649          1.64
     1.121145         35.85
     1.117897          1.02
     1.117413          0.74
     1.117396          2.68
     1.116966          1.42
     1.114297         12.87
     1.111696         56.70
     1.111432          0.88
     1.107914          0.90
     1.103323          1.29
     1.101337         17.01
     1.100563          0.00
     1.096976          0.04
     1.093046          3.81
     1.091733          1.46
     1.091312          3.31
     1.088483          7.59
     1.088247          0.82
     1.086511          0.25
     1.085429         11.41
     1.083647          1.30
     1.076134          0.97
     1.074044         54.91
     1.071027          0.33
     1.068638          1.78
     1.066720          0.03
     1.065234         24.14
     1.062494          1.80
     1.062354          0.68
     1.058329          0.03
     1.055482          0.69
     1.055353         31.88
     1.054962          1.43
     1.048903          0.30
     1.048374         17.08
     1.045982          1.95
     1.041386         16.55
     1.040711          0.14
     1.038641          1.10
     1.038441          3.58
     1.037867          0.91
     1.037351          0.28
     1.037314          4.90
     1.036896          0.42
     1.035682         20.68
     1.035480          0.73
     1.035471          0.22
     1.033626          1.04
     1.032085          2.07
     1.031451          4.22
     1.030650          1.49
     1.030499         21.39
     1.030233          4.06
     1.029130          1.13
     1.027896          0.79
     1.023266          2.45
     1.022195         10.98
     1.021440          7.99
     1.021327          8.04
     1.018096          7.99
     1.015156          2.59
     1.013307          0.06
     1.012244         18.36
     1.011447          0.64
     1.010082         16.22
     1.008466         12.75
     1.008035          3.28
##############################################################################
###                            Comments                                    ###
##############################################################################
###   Diffraction pattern calculated by Match!. 
###   I/Ic calculated by Match!. 
###   Space group has been derived from given symmetry operations. 
##############################################################################


