##############################################################################
###               Crystal structure data exported by Match!                ###
##############################################################################
###                           Data published by:                           ###
###                                                                        ###
###               COD (Crystallography Open Database)
##############################################################################
data_9013567
_citation_journal_full    'American Mineralogist'
_citation_journal_volume  '94'
_citation_page_first  '451'
_citation_page_last   '460'
_citation_year  '2009'
_citation_title  'Molecular conformation and anion configuration variations for As4S4 andAs4Se4 in an anion-substituted solid solution Locality: synthetic Note:S1Se0-3'
loop_
_publ_author_name
  'Kyono A.'
_chemical_formula_sum  'As S'
_chemical_name_mineral  'Realgar'
_symmetry_space_group_name_H-M 'P 1 21/n 1'
_space_group_IT_number 14
_space_group_crystal_system 'monoclinic'
loop_
_symmetry_equiv_pos_as_xyz
   'x, y, z'
   '-x+0.5, y+0.5, -z+0.5'
   '-x, -y, -z'
   'x+0.5, -y+0.5, z+0.5'
_cell_length_a        9.34200
_cell_length_b       13.56660
_cell_length_c        6.59610
_cell_angle_alpha    90.0000
_cell_angle_beta    106.5310
_cell_angle_gamma    90.0000
loop_
_atom_site_label
_atom_site_fract_x
_atom_site_fract_y
_atom_site_fract_z
_atom_site_occupancy
_atom_site_B_iso_or_equiv
as      0.121   -0.021   0.763    1.00000    2.066
as      0.424   0.139   0.856    1.00000    2.025
as      0.321   0.127   0.178    1.00000    2.027
as      0.039   0.161   0.715    1.00000    2.203
s      0.345   -0.006   0.701    1.00000    2.226
s      0.214   -0.023   0.116    1.00000    2.171
s      0.239   0.226   0.640    1.00000    2.368
s      0.107   0.210   0.052    1.00000    2.479
_cell_measurement_wavelength    1.541874
_cell_measurement_radiation   'x-rays'
_exptl_crystal_density_diffrn    3.547000
loop_
_pd_peak_d_spacing
_pd_peak_intensity
     7.474161         80.14
     6.783300         57.12
     6.038154        416.38
     5.731443        444.20
     5.516443        260.45
     5.407334       1000.00
     4.625388        100.84
     4.587112         22.00
     4.510147         12.03
     4.477929          0.55
     4.345439          0.01
     4.252281         44.64
     4.075168        214.40
     4.036765         29.27
     3.799843         38.55
     3.737081         71.64
     3.678367         51.23
     3.619605          5.33
     3.615147         92.32
     3.391650          5.06
     3.220383         25.12
     3.197016         11.11
     3.181910        308.45
     3.171818        245.04
     3.161728        417.68
     3.155819         30.00
     3.105629         16.18
     3.079212         65.07
     3.056058        327.61
     3.019077          1.04
     2.988868        198.27
     2.981352         67.61
     2.959950        229.73
     2.957085          0.52
     2.946987        151.83
     2.927164        504.49
     2.915534         15.98
     2.865722         86.61
     2.786335        110.07
     2.758222         14.23
     2.732383        120.35
     2.727150        408.92
     2.703667         95.60
     2.691590        139.84
     2.660248          2.42
     2.656401         59.33
     2.636371          2.75
     2.596760        166.31
     2.591214         21.62
     2.545490          9.03
     2.532081         21.37
     2.520676        124.44
     2.510927         17.10
     2.493468          2.30
     2.491387        133.83
     2.474925        155.35
     2.444386         95.39
     2.405650         44.07
     2.399485         89.41
     2.361375         65.61
     2.347272          0.30
     2.344628         16.68
     2.335355          0.05
     2.320558          7.17
     2.312694          5.16
     2.299633         25.76
     2.295785          0.27
     2.293556         13.71
     2.290465          0.12
     2.270360          0.63
     2.261466          1.70
     2.261100        132.15
     2.255074          0.20
     2.240887         49.85
     2.238964         19.05
     2.231322        110.93
     2.209082         20.76
     2.203101         19.27
     2.195813        119.54
     2.192308         94.63
     2.172720         30.47
     2.167604         67.82
     2.150351          2.00
     2.136238         96.92
     2.134283          2.74
     2.131566        113.02
     2.129082          6.33
     2.126140         47.74
     2.117503         40.91
     2.110237         40.74
     2.093186          0.89
     2.089084          0.48
     2.082830         28.59
     2.081495          2.01
     2.070804          1.25
     2.059054          0.20
     2.056766         46.96
     2.046002         17.65
     2.045513          4.27
     2.037584         41.81
     2.029007          2.46
     2.028097          5.64
     2.018383         25.97
     2.018074          0.10
     2.012879          0.87
     2.012718         19.87
     2.007887         20.57
     2.006504          2.74
     1.998487         10.13
     1.990927         12.62
     1.983038         44.76
     1.975269         21.61
     1.947883          6.83
     1.932781          3.98
     1.931566          0.63
     1.930120         31.26
     1.929569          4.92
     1.924077          2.20
     1.920135          2.25
     1.913460         14.32
     1.910481          4.68
     1.899921          9.27
     1.896716          5.03
     1.894239          7.00
     1.868540          7.44
     1.868527         19.61
     1.868398         18.87
     1.864091          3.80
     1.863385         48.06
     1.858799         83.39
     1.855123        121.38
     1.853006         10.19
     1.850928         27.52
     1.845358          3.03
     1.843438         13.74
     1.843237          5.92
     1.839183         72.31
     1.838814          3.16
     1.820925          0.01
     1.817676        104.75
     1.816099          0.89
     1.809803          4.40
     1.807573         17.17
     1.802445         17.95
     1.801317        100.48
     1.797759         13.71
     1.790259         28.90
     1.785758         62.93
     1.785279          3.85
     1.778642          0.60
     1.777260         23.06
     1.777024          2.60
     1.775761          3.67
     1.767413         46.59
     1.764982         12.23
     1.763819         17.23
     1.752199          1.18
     1.751611         15.60
     1.745555         17.89
     1.732984          5.89
     1.731813         17.69
     1.730886         47.74
     1.726929          4.29
     1.726817         22.79
     1.713290         15.86
     1.706895        116.11
     1.696258         60.44
     1.695825         42.99
     1.689130          5.11
     1.686416          0.80
     1.683402         42.73
     1.679254        119.16
     1.678457         31.08
     1.673718         89.93
     1.669839          5.85
     1.667902          3.58
     1.666341         29.41
     1.666217         12.82
     1.665300          5.31
     1.664567         29.59
     1.663885          0.23
     1.659858         27.81
     1.652356          2.51
     1.644831         23.13
     1.637947          2.65
     1.636706         21.85
     1.636511         58.28
     1.632874          4.23
     1.632657          5.01
     1.630951         14.38
     1.626832          9.21
     1.625560         15.71
     1.622441         30.88
     1.622415          8.75
     1.616521          0.06
     1.613451          0.33
     1.610937          0.86
     1.610191         13.17
     1.609469          0.22
     1.607594          5.64
     1.599416         13.97
     1.598508          1.88
     1.598261          8.91
     1.596425         39.03
     1.592838          0.01
     1.590955          4.91
     1.590608          2.33
     1.586704          0.85
     1.585909          6.86
     1.584762          1.68
     1.583866          6.57
     1.583461          4.76
     1.580864          0.03
     1.580119         16.08
     1.577910         46.90
     1.576203          0.76
     1.575249         28.44
     1.574223          0.12
     1.570239          6.51
     1.565992          4.60
     1.564859          0.01
     1.564265         16.22
     1.561254         15.21
     1.555116          7.86
     1.552814         18.83
     1.546386         24.94
     1.545758          0.07
     1.544897          0.02
     1.541796          1.46
     1.540630          1.35
     1.539606          6.01
     1.539059          8.33
     1.538846          7.01
     1.529037          5.22
     1.528029          0.27
     1.527109          3.90
     1.519418          0.04
     1.518657         18.34
     1.518428         23.37
     1.516298          2.17
     1.515696         44.42
     1.514730          5.63
     1.509538         40.01
     1.507883          0.40
     1.507331          3.05
     1.506419          5.99
     1.503382         20.06
     1.502947         38.99
     1.500280         24.55
     1.495585          6.45
     1.494832          0.70
     1.494434         18.24
     1.492643          0.81
     1.492308          4.85
     1.491612          2.85
     1.490676          0.95
     1.489842          2.65
     1.486491          5.30
     1.483690          0.46
     1.482826          5.46
     1.480340         12.85
     1.479975         11.22
     1.478543          0.29
     1.477258         29.15
     1.475472          0.52
     1.474523          6.23
     1.473968          2.93
     1.473494          9.26
     1.470504         39.16
     1.469179          1.11
     1.466313          1.92
     1.465351          0.67
     1.463582         64.59
     1.462515          1.82
     1.461558          0.01
     1.457767          4.38
     1.456991          7.54
     1.454057         14.83
     1.453052          6.80
     1.452674         42.57
     1.451665         10.31
     1.448480          0.28
     1.447622         13.98
     1.445338         18.10
     1.442886          6.83
     1.442045         14.03
     1.440297          0.27
     1.435387          0.61
     1.432861          7.71
     1.432059          2.90
     1.431871          1.18
     1.428626         39.20
     1.426671         18.19
     1.421519          0.45
     1.417427          0.03
     1.416376          0.24
     1.414815          0.03
     1.414667          6.21
     1.413527          3.19
     1.411816         13.12
     1.406565         15.89
     1.404642         12.32
     1.404018          1.05
     1.402698          4.41
     1.396073          2.24
     1.393932          0.29
     1.393772          4.79
     1.393344         11.40
     1.393168          2.13
     1.392471          2.67
     1.391719          4.98
     1.389901         10.14
     1.384260          0.28
     1.383066          0.66
     1.379111          0.85
     1.376731          0.04
     1.373090          0.08
     1.372523          1.68
     1.372423          0.00
     1.370990          1.82
     1.370381         23.93
     1.370257          1.68
     1.368554          3.11
     1.368522         25.36
     1.367085          0.42
     1.366191          0.47
     1.366111          7.44
     1.365934          3.62
     1.363575          4.11
     1.362389          0.42
     1.361370          2.58
     1.361165          0.64
     1.360669          1.85
     1.358389          3.63
     1.356660          1.22
     1.351890          0.27
     1.351833          5.00
     1.349155          0.29
     1.348641         12.82
     1.347693          0.04
     1.345795          3.15
     1.345588          0.23
     1.345119          0.89
     1.342159          2.20
     1.341357          0.76
     1.341262          2.82
     1.336593          0.57
     1.334982          2.04
     1.333470          0.99
     1.332085          0.08
     1.331418         12.24
     1.330124          0.58
     1.329692          5.31
     1.328200         27.99
     1.328177          3.60
     1.326852          0.00
     1.326475         12.25
     1.324292          5.13
     1.323661          4.06
     1.323350          0.07
     1.321417          0.00
     1.321285          3.27
     1.319132         11.52
     1.318186          0.38
     1.317953          1.84
     1.315938          0.19
     1.315425          0.24
     1.313861          1.28
     1.313095          1.10
     1.313024         10.26
     1.311214          0.02
     1.310199          1.11
     1.309642         18.09
     1.307813          0.00
     1.305547          0.00
     1.304858          0.90
     1.304809          4.47
     1.304720          2.34
     1.303402          0.17
     1.300955          3.36
     1.299683          2.63
     1.299640          1.33
     1.299544          0.09
     1.298728          2.78
     1.298380          5.14
     1.297452          0.01
     1.296868          1.81
     1.295607          3.45
     1.294955          8.46
     1.293376          0.04
     1.293038          3.31
     1.291917          0.84
     1.289418          0.52
     1.283048          2.52
     1.282672          0.03
     1.282018          1.87
     1.281262          5.52
     1.281235          1.31
     1.277845          9.68
     1.276978         13.02
     1.275688          0.95
     1.274720          0.81
     1.273757          0.59
     1.272745          0.02
     1.270851          2.89
     1.269733          0.43
     1.268909          0.04
     1.266614          0.62
     1.266430          4.42
     1.266041          1.71
     1.265530          2.33
     1.264936          4.38
     1.261011          0.20
     1.260720         11.87
     1.260338          0.04
     1.259691          0.79
     1.259473          0.16
     1.259232          0.47
     1.257812          0.74
     1.257241          9.07
     1.255718          0.03
     1.255464          7.03
     1.254322          0.20
     1.254193          0.03
     1.254073          0.56
     1.253588          1.47
     1.251664          0.79
     1.251601          0.80
     1.251329          1.92
     1.250416          0.01
     1.246734          1.33
     1.245694          0.01
     1.244699          2.62
     1.244052          0.29
     1.243516          8.46
     1.243500          1.71
     1.243267          0.90
     1.242747          1.35
     1.242219          2.36
     1.241880          0.23
     1.239971          2.02
     1.238723          2.46
     1.238187          0.74
     1.237953          0.63
     1.237462          0.01
     1.237332          0.85
     1.235922         14.09
     1.235841          0.27
     1.235103          1.40
     1.233994          9.17
     1.233531          0.20
     1.232790          0.00
     1.231878          1.51
     1.231642          0.87
     1.231457          7.66
     1.231087          1.99
     1.229487          0.00
     1.226122          1.08
     1.225147          7.10
     1.225020          0.02
     1.222193          4.18
     1.221796          3.91
     1.221724          2.17
     1.219305          9.97
     1.218398         16.66
     1.218177          0.07
     1.217959          0.05
     1.217726          3.33
     1.217263          0.03
     1.216330          0.56
     1.212872          0.51
     1.211810          1.32
     1.211050          0.44
     1.210518          2.93
     1.210041          7.03
     1.208378          3.46
     1.207631          0.03
     1.206535          8.55
     1.206047          0.40
     1.205670          0.02
     1.205049          1.60
     1.202875          6.53
     1.202825          0.62
     1.201309          0.75
     1.200937          0.01
     1.200425          7.30
     1.199937          4.04
     1.199743          1.63
     1.199283          1.90
     1.197070          0.07
     1.194022          3.06
     1.191171          5.86
     1.191029          5.05
     1.190920          0.17
     1.190053          1.56
     1.189916          0.10
     1.189754          9.50
     1.189052          6.12
     1.188936          0.07
     1.188639          2.43
##############################################################################
###                            Comments                                    ###
##############################################################################
###   Diffraction pattern calculated by Match!. 
###   I/Ic calculated by Match!. 
##############################################################################


