##############################################################################
###               Crystal structure data exported by Match!                ###
##############################################################################
###                           Data published by:                           ###
###                                                                        ###
###               COD (Crystallography Open Database)
##############################################################################
data_4002435
_citation_journal_full    'Chemistry of Materials (1,1989-)'
_citation_journal_volume  '18'
_citation_page_first  '1464'
_citation_page_last   '1469'
_citation_year  '2006'
_citation_title  'Magic silica clusters as nanoscale building units forsuper-(tris)tetrahedral materials'
loop_
_publ_author_name
  'Wojdel J.C.'
  'Zwijnenburg M.A.'
  'Bromley S.T.'
_chemical_formula_sum  'O2 Si'
_chemical_name_common  'Silica'
_symmetry_space_group_name_H-M 'P 4/m b m'
_space_group_IT_number 127
_space_group_crystal_system 'tetragonal'
loop_
_symmetry_equiv_pos_as_xyz
   'x, y, z'
   '-y, x, z'
   '-x, -y, z'
   'y, -x, z'
   'x+0.5, -y+0.5, -z'
   '-x+0.5, y+0.5, -z'
   'y+0.5, x+0.5, -z'
   '-y+0.5, -x+0.5, -z'
   '-x, -y, -z'
   'y, -x, -z'
   'x, y, -z'
   '-y, x, -z'
   '-x+0.5, y+0.5, z'
   'x+0.5, -y+0.5, z'
   '-y+0.5, -x+0.5, z'
   'y+0.5, x+0.5, z'
_cell_length_a       15.80000
_cell_length_b       15.80000
_cell_length_c        9.96000
_cell_angle_alpha    90.0000
_cell_angle_beta     90.0000
_cell_angle_gamma    90.0000
_cell_formula_units_Z 32
loop_
_atom_site_label
_atom_site_fract_x
_atom_site_fract_y
_atom_site_fract_z
_atom_site_occupancy
_atom_site_B_iso_or_equiv
o      0.051   0.108   0.500    1.00000    1.000
o      0.317   0.183   0.352    1.00000    1.000
o      0.341   0.038   0.230    1.00000    1.000
o      0.408   0.092   0.000    1.00000    1.000
si      0.134   0.048   0.500    1.00000    1.000
o      0.190   0.069   0.364    1.00000    1.000
o      0.328   0.042   0.500    1.00000    1.000
si      0.428   0.072   0.156    1.00000    1.000
o      0.500   0.000   0.168    1.00000    1.000
si      0.292   0.081   0.358    1.00000    1.000
_cell_measurement_wavelength    1.541874
_cell_measurement_radiation   'x-rays'
_exptl_crystal_density_diffrn    1.284000
loop_
_pd_peak_d_spacing
_pd_peak_intensity
    11.172287        289.01
     9.960000        796.66
     7.900000        133.50
     7.434581        365.20
     7.065975       1000.00
     6.189423         13.33
     5.763012        135.71
     5.586144         51.52
     4.996399          5.00
     4.980000          0.03
     4.872161        102.22
     4.548582        128.99
     4.465970         14.36
     4.382132         15.43
     4.212814          5.58
     4.070602         13.73
     4.011071         96.84
     3.950000          7.81
     3.832063        101.35
     3.724096          2.70
     3.717290          0.21
     3.671789          2.47
     3.576483         10.10
     3.532987          4.08
     3.527175          1.35
     3.488233          8.57
     3.329712          1.90
     3.320000          0.31
     3.289813          2.16
     3.182457          0.31
     3.160000          0.08
     3.098635         12.27
     3.094712          6.33
     3.060704         76.95
     3.037004          0.01
     3.012039         48.62
     3.004844         25.44
     2.982408          7.39
     2.958755         45.72
     2.933986          2.16
     2.881506         10.26
     2.853994         16.59
     2.814415         15.81
     2.793072          5.45
     2.765196         12.91
     2.709678          0.40
     2.689328         12.22
     2.668174          1.41
     2.646287         31.55
     2.633333          2.99
     2.630924          0.26
     2.614644          0.18
     2.597504         36.05
     2.545855          0.31
     2.541506          0.17
     2.527888          6.77
     2.513436         15.79
     2.509251          0.99
     2.498199         15.94
     2.490000          1.17
     2.478194          1.25
     2.467545          0.61
     2.436081          0.11
     2.430370          5.48
     2.423139         19.58
     2.419388         27.34
     2.395136          6.66
     2.380156          2.94
     2.374829          8.82
     2.355325          3.99
     2.348450         14.47
     2.327914          1.65
     2.303051          0.60
     2.292107          0.84
     2.288932         27.12
     2.274291          0.10
     2.265284          0.93
     2.234457          7.66
     2.232985          1.76
     2.228585          0.55
     2.211013          0.02
     2.198511          1.85
     2.191066          2.03
     2.180265          3.88
     2.170297          9.47
     2.164914          5.19
     2.139898          2.37
     2.137314          0.10
     2.129195          0.04
     2.120538          5.54
     2.106407          1.38
     2.099245          3.65
     2.087934          0.46
     2.074642          0.35
     2.069938          5.99
     2.063141          0.90
     2.045774          0.02
     2.038651          0.43
     2.035301         28.98
     2.031048          1.04
     2.022983          1.52
     2.005535          0.25
     1.996191          4.00
     1.992000          0.02
     1.989572          4.44
     1.982503          0.84
     1.980447          1.14
     1.975000         25.47
     1.961072          8.14
     1.959749          2.73
     1.955783          0.62
     1.940969          1.93
     1.937280          7.83
     1.931542          0.32
     1.922880          4.84
     1.921004          1.06
     1.917268          1.83
     1.916031          1.72
     1.915103          5.21
     1.898470          0.90
     1.881533          5.46
     1.876274          0.05
     1.874245          0.23
     1.862048          2.11
     1.858645          0.88
     1.853719          3.76
     1.850362          0.01
     1.849250          1.13
     1.836713          2.76
     1.835895          1.10
     1.833447          1.20
     1.830336          2.59
     1.828718          8.59
     1.823625          0.14
     1.818177          0.16
     1.816591          0.04
     1.813431          0.61
     1.809246          5.47
     1.806257          3.71
     1.797500          0.08
     1.788242          0.51
     1.778627          0.24
     1.767463          0.44
     1.766494          4.00
     1.763588          0.41
     1.759378          1.64
     1.756507          0.46
     1.752703         16.19
     1.744818          0.17
     1.744117          0.26
     1.739349          1.02
     1.735192          2.32
     1.733587          1.37
     1.727540          0.14
     1.723245          1.93
     1.718646          0.68
     1.713751          7.17
     1.711097          0.70
     1.697371          3.38
     1.688932          1.36
     1.687660          8.53
     1.685126          0.01
     1.675623          1.53
     1.674797          5.47
     1.665466          0.55
     1.664856          0.75
     1.663030          6.05
     1.660000          9.88
     1.659499          0.59
     1.651610          2.27
     1.648050          1.25
     1.646674          0.67
     1.644907          3.41
     1.642659          1.51
     1.641974          0.08
     1.636064          0.06
     1.624523          1.53
     1.624054          1.91
     1.621795          0.40
     1.620483          0.79
     1.616004          6.54
     1.615542          0.00
     1.607162          0.34
     1.604973          0.25
     1.604247          1.39
     1.596041          7.19
     1.593897          0.44
     1.591228          0.01
     1.588664          0.12
     1.587431          0.60
     1.583834          1.95
     1.580693          0.05
     1.580000          1.15
     1.579479          1.84
     1.575935          0.38
     1.575331          0.17
     1.572159          3.88
     1.570109          3.17
     1.560487          1.38
     1.559484          3.73
     1.557484          0.34
     1.552932          0.88
     1.552353          0.31
     1.549971          0.32
     1.549317          0.21
     1.547356          7.64
     1.544510          5.13
     1.539988         10.19
     1.534632          1.40
     1.530906          0.07
     1.530352          0.45
     1.526973          0.89
     1.523224          2.13
     1.522836          5.51
     1.520973          0.21
     1.519892          0.06
     1.518502          0.10
     1.516733          3.83
     1.516194          2.81
     1.513366          0.03
     1.506019          1.13
     1.502422          0.00
     1.499224          0.09
     1.496193          4.69
     1.495308          0.31
     1.491204          0.02
     1.488657          1.22
     1.486916          0.06
     1.486339          1.38
     1.484607          0.48
     1.479378          0.09
     1.478096          1.49
     1.473920          0.00
     1.470060          0.09
     1.469569          0.69
     1.467548          0.12
     1.466993          0.33
     1.466576          0.73
     1.463253          0.25
     1.460711          0.76
     1.451335          0.58
     1.447982          0.24
     1.445251          0.01
     1.444784          0.02
     1.444454          0.10
     1.440753          0.51
     1.438455          0.11
     1.436885          1.19
     1.430465          1.51
     1.428920          1.67
     1.426997          0.03
     1.426678          9.31
     1.424256          0.63
     1.422857          5.73
     1.420898          1.58
     1.419384          0.01
     1.415936          0.35
     1.415497          0.47
     1.413195          1.94
     1.411706         10.99
     1.411457          1.19
     1.407208          0.49
     1.404271          2.12
     1.403968          0.19
     1.402508          0.38
     1.401659          1.97
     1.400326          0.30
     1.399181          1.87
     1.398758          1.73
     1.397015          0.47
     1.396536          2.26
     1.394858          4.52
     1.393012          0.85
     1.389692          0.03
     1.385752          0.38
     1.384347          1.26
     1.383007          0.01
     1.382598          0.02
     1.380915          0.18
     1.378832          3.81
     1.377335          1.19
     1.377049         13.32
     1.374870          2.28
     1.372531          0.94
     1.368450          1.27
     1.360289          0.10
     1.359515          0.00
     1.356867          1.64
     1.356593          0.00
     1.355276          0.00
     1.354839          1.85
     1.353307          2.72
     1.350317          1.17
     1.349885          0.31
     1.348587          1.23
     1.344664          2.00
     1.343701          1.96
     1.342475          1.35
     1.341837          2.97
     1.338656          0.05
     1.337656          1.53
     1.337024          3.06
     1.335029          0.47
     1.334087          9.52
     1.333877          0.85
     1.332521          4.18
     1.329357          3.87
     1.329149          0.03
     1.323143          0.20
     1.321668          0.36
     1.319841          0.03
     1.318528          0.04
     1.316667          0.01
     1.315462          0.30
     1.313712          2.36
     1.312516          0.04
     1.312119          5.97
     1.307617          0.41
     1.307322          0.00
     1.306437          0.58
     1.305311          1.77
     1.302870          0.10
     1.300879          0.74
     1.300297         10.33
     1.299137          0.80
     1.298752          0.22
     1.297402          6.54
     1.296492          0.61
     1.296155          0.16
     1.294386          1.58
     1.293242          2.75
     1.293050          4.51
     1.287849          3.45
     1.287285          1.26
     1.283592          2.05
     1.283265          0.45
     1.281919          0.20
     1.280252          0.93
     1.278824          8.69
     1.277721          0.54
     1.277354          0.17
     1.276254          0.58
     1.272928          1.06
     1.270753          2.67
     1.268817          0.39
     1.267827          1.40
     1.266977          0.51
     1.266663          1.55
     1.264745          1.19
     1.263944          0.63
     1.260977          0.94
     1.259919          5.59
     1.259742          0.08
     1.256718          0.19
     1.254626          0.28
     1.254409          1.67
     1.252762          0.01
     1.251809          0.18
     1.250991          0.00
     1.250474          7.82
     1.249442          1.08
     1.249100          2.34
     1.247899          2.78
     1.245554          0.01
     1.245000          3.20
     1.241365          0.95
     1.240356          0.87
     1.239391          1.80
     1.239097          0.71
     1.237885          1.45
     1.237341          0.09
     1.237301          1.25
     1.236384          4.68
     1.235304          1.52
     1.234103          0.12
     1.233773          0.53
     1.232615          2.59
     1.231835          0.10
     1.231546          0.35
     1.229822          0.07
     1.229046          1.53
     1.226113          2.23
     1.224415          1.81
     1.223930          0.21
     1.222962          0.05
     1.222399          0.19
     1.220274          0.50
     1.218040          5.07
     1.217880          0.34
     1.216651          2.85
     1.215700          0.21
     1.215385          0.17
     1.215185          0.96
     1.211805          1.92
     1.211570          0.05
     1.210865          1.79
     1.209694          1.25
     1.209500          4.88
     1.208060          0.20
     1.206436          0.71
     1.205972          0.28
     1.205046          0.24
     1.204508          0.07
     1.202934          0.07
     1.202665          0.14
     1.201252          0.08
     1.200184          1.00
     1.197604          0.03
     1.197568          0.25
##############################################################################
###                            Comments                                    ###
##############################################################################
###   Diffraction pattern calculated by Match!. 
###   I/Ic calculated by Match!. 
###   Space group has been derived from given symmetry operations. 
##############################################################################


