##############################################################################
###               Crystal structure data exported by Match!                ###
##############################################################################
###                           Data published by:                           ###
###                                                                        ###
###               COD (Crystallography Open Database)
##############################################################################
data_4124057
_citation_journal_full    'Journal of the American Chemical Society'
_citation_journal_volume  '126'
_citation_page_first  '9769'
_citation_page_last   '9775'
_citation_year  '2004'
_citation_title  'Chemical evaluation of hypothetical uninodal zeolites'
loop_
_publ_author_name
  'Foster M.D.'
  'Friedrichs O.D.'
  'Paz F.A.A.'
  'Bell R.G.'
  'Klinowski J.'
_chemical_formula_sum  'O2 Si'
_chemical_name_common  'Silica'
_symmetry_space_group_name_H-M 'P b a m'
_space_group_IT_number 55
_space_group_crystal_system 'orthorhombic'
loop_
_symmetry_equiv_pos_as_xyz
   'x, y, z'
   '-x, -y, z'
   'x+0.5, -y+0.5, -z'
   '-x+0.5, y+0.5, -z'
   '-x, -y, -z'
   'x, y, -z'
   '-x+0.5, y+0.5, z'
   'x+0.5, -y+0.5, z'
_cell_length_a        9.74590
_cell_length_b        9.76467
_cell_length_c        8.34061
_cell_angle_alpha    90.0000
_cell_angle_beta     90.0000
_cell_angle_gamma    90.0000
_cell_formula_units_Z 16
loop_
_atom_site_label
_atom_site_fract_x
_atom_site_fract_y
_atom_site_fract_z
_atom_site_occupancy
_atom_site_B_iso_or_equiv
o      0.648   0.651   0.000    1.00000    1.000
si      0.170   0.121   0.313    1.00000    1.000
o      0.851   0.854   0.500    1.00000    1.000
si      0.379   0.330   0.187    1.00000    1.000
o      0.307   0.193   0.251    1.00000    1.000
o      0.315   0.460   0.280    1.00000    1.000
o      0.040   0.184   0.219    1.00000    1.000
_cell_measurement_wavelength    1.541874
_cell_measurement_radiation   'x-rays'
_exptl_crystal_density_diffrn    2.011000
loop_
_pd_peak_d_spacing
_pd_peak_intensity
     8.340610          0.00
     6.898019       1000.00
     5.315620          0.00
     4.882335        125.42
     4.872950        126.77
     4.365211         49.24
     4.360174         49.91
     4.213520         29.70
     4.207483         28.17
     4.170305        534.37
     3.867542        248.76
     3.864038        245.19
     3.568798         87.99
     3.449009         13.57
     3.187250          0.00
     3.170997         19.63
     3.168422         20.57
     3.087265        172.45
     3.082516        171.68
     3.015401         23.41
     3.013739         23.85
     2.895288         10.50
     2.891370         10.16
     2.780203          0.00
     2.706627         13.21
     2.704625         11.08
     2.657810         14.15
     2.578639          0.01
     2.574464         11.30
     2.572741         10.98
     2.481320         22.50
     2.478853         22.71
     2.441168         41.43
     2.436475         41.12
     2.415958         32.74
     2.414818         34.69
     2.368012          4.49
     2.363995          5.41
     2.344980         31.58
     2.344199         29.97
     2.342879          0.89
     2.338730          0.73
     2.299340          9.70
     2.277981         14.52
     2.274404         14.35
     2.270366          5.04
     2.269184          5.22
     2.216650          0.01
     2.182605          2.72
     2.180087          3.00
     2.164532          0.01
     2.111506          1.53
     2.109226          1.63
     2.106760          1.13
     2.103742          1.09
     2.085152         35.80
     2.065955         21.15
     2.064530         20.22
     2.059197         11.72
     2.056554         11.17
     2.013560         16.42
     1.995955          6.29
     1.951580          8.40
     1.950529          8.46
     1.939364          2.26
     1.938627          1.97
     1.933771          0.06
     1.932019          0.03
     1.917591          3.29
     1.917021          3.52
     1.914867          1.97
     1.911469          2.08
     1.900255          2.08
     1.899284          2.19
     1.881516          1.39
     1.881112          1.51
     1.866314          4.63
     1.863167          3.97
     1.834387          1.49
     1.832393          1.65
     1.812772          0.18
     1.810248          0.18
     1.802732          4.28
     1.800958          4.19
     1.784399          0.27
     1.771873          0.00
     1.771416         24.78
     1.769060         25.24
     1.767605          6.04
     1.766824          5.89
     1.740189          2.31
     1.737637          2.50
     1.727952          2.47
     1.727118          2.57
     1.724505         14.01
     1.716774          3.78
     1.715548          3.66
     1.688785          0.00
     1.673773          9.84
     1.672258          9.82
     1.668122          0.00
     1.662498          0.47
     1.660550          0.47
     1.651818          0.09
     1.651362          0.15
     1.641056          2.87
     1.639628          2.28
     1.627445         15.12
     1.624317         15.24
     1.621386          0.00
     1.605218          7.56
     1.602299          7.13
     1.597328          1.30
     1.597322          2.26
     1.596751          1.51
     1.594364          1.98
     1.593625          0.82
     1.585499          0.20
     1.584211          0.20
     1.578530          9.84
     1.578212         10.03
     1.577010         12.80
     1.576291          6.03
     1.575110         12.71
     1.573526          6.26
     1.564925          9.16
     1.563764          9.47
     1.558223         31.11
     1.557994         30.14
     1.553333          9.62
     1.552121          9.58
     1.544611          2.63
     1.543632          0.14
     1.541258          0.11
     1.523839          4.00
     1.523196          4.55
     1.518498         10.20
     1.517856          0.03
     1.517013         10.83
     1.516090          4.68
     1.515599          0.05
     1.513560          4.78
     1.507700          0.12
     1.506870          0.08
     1.501704          0.00
     1.499026          3.88
     1.498414          3.92
     1.498072          4.62
     1.495699          4.83
     1.467591          8.03
     1.467080          7.69
     1.465477          0.00
     1.455070          0.07
     1.453391          0.11
     1.447644          0.88
     1.445685          0.81
     1.433961          7.49
     1.433421          0.02
     1.433008          7.34
     1.431816          0.02
     1.431281          3.37
     1.430747          3.35
     1.424858          0.07
     1.424449          0.06
     1.420083          3.10
     1.419793          2.91
     1.410380          0.21
     1.409021          0.24
     1.404507          7.12
     1.402494          7.11
     1.390145          5.03
     1.390102          2.61
     1.388248          5.39
     1.380880          2.55
     1.379604          5.60
     1.378331          2.51
     1.377278          0.45
     1.376434          0.43
     1.373846          0.11
     1.372432          0.09
     1.368059          0.51
     1.366973          0.47
     1.363728          6.79
     1.362960          6.55
     1.362706          2.75
     1.362335          0.00
     1.361110          0.00
     1.359888          0.00
     1.353314          4.08
     1.352312          4.15
     1.350222          0.00
     1.349568          0.18
     1.347981          0.15
     1.341086         16.22
     1.338896         15.38
     1.336966          0.15
     1.336773          0.12
     1.336281          2.16
     1.335847          2.18
     1.335843          1.22
     1.334881          1.16
     1.328905          0.58
     1.325358          1.32
     1.324793          1.35
     1.324561          0.00
     1.324420          0.00
     1.324079          0.07
     1.321972          0.07
     1.310885          0.07
     1.309793          5.35
     1.308704          0.06
     1.305270          1.74
     1.304551          1.82
     1.289319          0.01
     1.289181          0.32
     1.288013          0.33
     1.287232          0.22
     1.286370          0.24
     1.282938          2.21
     1.281781          6.69
     1.281404          2.21
     1.280081          6.95
     1.276695         13.53
     1.274806         13.97
     1.271964          0.04
     1.270511          0.08
     1.268028          0.91
     1.267739          1.03
     1.267536          6.59
     1.267206          6.40
     1.266907          0.08
     1.265266          0.08
     1.257791          6.54
     1.256827          6.03
     1.249251          4.92
     1.248818          4.87
     1.240660          0.03
     1.239426          0.03
     1.236733          0.01
     1.236549          1.56
     1.236358          1.41
     1.235816          0.00
     1.235470          1.64
     1.235051          1.69
     1.234901          0.02
     1.230314          0.03
     1.229975          0.04
     1.227497         17.74
     1.226713         18.35
     1.225214          0.92
     1.223729          1.00
     1.220584          0.34
     1.218238          0.32
     1.216812          4.13
     1.216084          4.15
     1.211122          3.63
     1.210584          8.34
     1.209402          7.84
     1.208866          3.35
     1.207979          6.08
     1.207901          0.11
     1.207720          1.37
     1.207409          6.04
     1.206300          0.08
     1.205447          1.22
     1.198978          0.00
     1.198805          6.26
     1.198552          0.71
     1.198283          5.85
     1.198031          0.40
     1.196885          0.41
     1.196711          4.31
     1.196365          0.76
     1.196330          4.73
     1.193258          0.01
     1.192332          0.03
     1.191516          0.00
     1.189599         17.46
     1.184006          0.71
     1.181998          0.74
     1.181533          3.40
     1.181000          2.85
     1.174128          0.00
     1.172490          1.67
     1.172253          0.06
     1.172099          1.61
     1.171439          1.68
     1.170304          0.06
     1.169365          1.67
     1.164893          4.10
     1.164026          0.24
     1.163744          3.86
     1.163068          3.67
     1.162753          0.24
     1.162591          9.67
     1.161544          9.71
     1.161069          3.61
     1.157543          1.44
     1.157418          1.59
     1.156660          7.17
     1.155566          7.63
     1.151306          0.22
     1.150566          0.21
     1.149828          0.19
     1.149670          0.02
     1.149464          0.00
     1.149372          0.00
     1.142597          0.27
     1.140941          0.33
     1.139501          0.66
     1.139172          0.70
     1.138990          0.31
     1.138901          0.00
     1.137202          0.32
     1.135183          0.04
     1.134592          0.04
     1.134381          0.06
     1.133674          0.06
     1.132970          0.18
     1.132237          0.58
     1.132032          0.65
     1.132030          0.19
     1.132024          0.56
     1.130414          0.58
     1.127937          0.39
     1.126634          0.30
     1.126205          0.00
     1.125074          4.97
     1.124932          0.00
     1.124815          5.03
     1.124242          0.00
     1.124033          0.23
     1.123344          0.30
     1.117619          5.08
     1.115817          5.35
     1.111600          1.51
     1.111378          1.42
     1.110342          0.09
     1.109927          2.91
     1.109016          2.91
     1.108603          0.06
     1.108325          0.33
     1.103102          0.39
     1.102533          0.35
     1.101984          0.13
     1.100499          0.16
     1.096528          0.00
     1.095809          0.00
     1.094608          0.15
     1.093972          0.14
     1.091964          1.11
     1.091303          0.04
     1.090912          1.14
     1.090523          0.01
     1.090392          0.01
     1.090044          0.04
     1.089336          0.15
     1.087771          0.18
     1.082266          2.88
     1.082080          0.60
     1.080852          0.48
     1.078302          0.94
     1.076280          0.92
     1.071641          0.20
     1.071368          0.19
     1.070775          0.00
     1.070378          0.00
     1.069402          0.82
     1.069384          0.02
     1.068989          0.03
     1.067429          0.72
     1.064370          0.20
     1.064005          0.15
     1.063708          0.01
     1.063124          0.00
     1.062541          0.01
     1.062417          0.00
     1.059031          0.52
     1.058264          0.92
     1.057952          0.86
     1.057911          0.00
     1.057187          0.48
     1.056999          0.53
     1.056827          0.74
     1.056141          0.54
     1.055753          0.01
     1.055517          0.78
     1.054613          0.01
     1.053380          0.65
     1.051871          0.66
     1.050953          2.48
     1.050837          2.62
     1.050596          0.54
     1.050484          2.40
     1.050317          1.03
     1.050017          2.59
     1.049847          1.10
     1.049755          0.99
     1.049543          1.06
     1.048795          0.56
     1.047280          0.36
     1.046932          2.23
     1.046167          2.10
     1.045824          0.03
     1.045820          0.30
     1.045547          0.03
     1.045195          0.02
     1.044158          0.01
     1.043969          0.46
     1.042576          1.18
     1.042133          0.44
     1.034493          1.34
     1.033621          1.18
     1.032977          0.01
     1.032265          0.01
     1.030868          1.13
     1.029599          0.02
     1.029088          0.00
     1.028277          0.02
     1.027505          0.00
     1.026983          0.60
     1.026785          0.76
     1.026626          0.65
     1.026451          0.36
     1.025774          0.65
     1.025752          0.57
     1.025469          0.61
     1.024772          0.42
     1.021344          0.93
     1.019796          0.78
     1.019589          0.02
     1.019503          0.01
     1.016957          0.10
     1.016809          0.08
     1.016379          0.14
     1.015846          2.17
     1.015531          0.13
     1.014830          2.29
     1.014055          0.02
     1.013991          0.01
     1.011654          0.94
     1.011152          0.93
     1.006780          0.39
##############################################################################
###                            Comments                                    ###
##############################################################################
###   Diffraction pattern calculated by Match!. 
###   I/Ic calculated by Match!. 
###   Space group has been derived from given symmetry operations. 
##############################################################################


