##############################################################################
###               Crystal structure data exported by Match!                ###
##############################################################################
###                           Data published by:                           ###
###                                                                        ###
###               COD (Crystallography Open Database)
##############################################################################
data_9007483
_citation_journal_full    'Acta Crystallographica'
_citation_journal_volume  '17(11)'
_citation_page_first  '1361'
_citation_page_last   '1369'
_citation_year  '1964'
_citation_title  'On the crystal chemistry of salt hydrates. IV. The refinement of the crystalstructure of MgSO4*7H2O (epsomite)Note: Mg z-coordinate altered in order to reproduce Mg-O bond lengthsLocality: synthetic'
loop_
_publ_author_name
  'Baur W. H.'
_chemical_formula_sum  'H14 Mg O11 S'
_chemical_name_mineral  'Epsomite'
_symmetry_space_group_name_H-M 'P 21 21 21'
_space_group_IT_number 19
_space_group_crystal_system 'orthorhombic'
loop_
_symmetry_equiv_pos_as_xyz
   'x, y, z'
   '-x+0.5, -y, z+0.5'
   'x+0.5, -y+0.5, -z'
   '-x, y+0.5, -z+0.5'
_cell_length_a       11.86800
_cell_length_b       11.99600
_cell_length_c        6.85700
_cell_angle_alpha    90.0000
_cell_angle_beta     90.0000
_cell_angle_gamma    90.0000
_cell_formula_units_Z 4
loop_
_atom_site_label
_atom_site_fract_x
_atom_site_fract_y
_atom_site_fract_z
_atom_site_occupancy
_atom_site_B_iso_or_equiv
mg      0.423   0.106   0.040    1.00000    1.010
s      0.727   0.184   0.490    1.00000    1.029
o      0.685   0.075   0.428    1.00000    2.622
o      0.851   0.187   0.482    1.00000    2.089
o      0.688   0.206   0.690    1.00000    2.192
o      0.681   0.272   0.360    1.00000    1.922
o      0.266   0.175   0.004    1.00000    1.999
o      0.472   0.248   0.199    1.00000    1.517
o      0.469   0.176   0.780    1.00000    1.960
o      0.583   0.046   0.077    1.00000    2.256
o      0.376   0.962   0.889    1.00000    1.771
o      0.362   0.034   0.291    1.00000    2.054
o      0.492   0.438   0.938    1.00000    2.469
h      0.244   0.229   0.105    1.00000    1.000
h      0.234   0.206   0.888    1.00000    1.000
h      0.435   0.270   0.330    1.00000    1.000
h      0.533   0.246   0.268    1.00000    1.000
h      0.419   0.234   0.664    1.00000    1.000
h      0.549   0.188   0.755    1.00000    1.000
h      0.632   0.055   0.212    1.00000    1.000
h      0.600   0.983   0.025    1.00000    1.000
h      0.356   0.906   0.961    1.00000    1.000
h      0.428   0.946   0.768    1.00000    1.000
h      0.281   0.033   0.320    1.00000    1.000
h      0.385   0.008   0.414    1.00000    1.000
h      0.431   0.492   0.975    1.00000    1.000
h      0.465   0.370   0.008    1.00000    1.000
_cell_measurement_wavelength    1.541874
_cell_measurement_radiation   'x-rays'
_exptl_crystal_density_diffrn    1.677000
loop_
_pd_peak_d_spacing
_pd_peak_intensity
     8.436834          1.14
     5.998000        149.87
     5.953085        202.60
     5.937251         38.81
     5.934000         38.97
     5.353178        278.67
     5.321174        172.25
     5.318833          0.21
     4.514567         26.04
     4.487086        255.06
     4.219585       1000.00
     4.218417        261.06
     4.202703        901.64
     3.789362        127.33
     3.756981         93.68
     3.592948          1.91
     3.454238        146.50
     3.428500        152.00
     3.426622         26.52
     3.316613         27.67
     3.316046          0.26
     3.302393         21.36
     3.296507          1.45
     3.294837         11.67
     3.293811          0.04
     3.176255         83.83
     2.999000         34.79
     2.985287         67.59
     2.976543         10.97
     2.975313        142.81
     2.968626        111.45
     2.967000          7.08
     2.907603          1.95
     2.887123         86.12
     2.881699         91.84
     2.880212        272.55
     2.812278         25.75
     2.747694        272.31
     2.723020         22.67
     2.676887        347.42
     2.676589          0.16
     2.660587        306.77
     2.659417        179.06
     2.655466         25.32
     2.602767          9.59
     2.601945          4.46
     2.590891         21.90
     2.542345          1.83
     2.532497          3.44
     2.493366         24.22
     2.479466         33.27
     2.389889         34.25
     2.383563         19.70
     2.382721          4.97
     2.378477         51.31
     2.351629         12.92
     2.328457          1.83
     2.264582          0.01
     2.257283         62.09
     2.256747         25.71
     2.250709         11.06
     2.245274          0.16
     2.244421          3.48
     2.243543          4.72
     2.243017          1.29
     2.224448          3.60
     2.224277         29.18
     2.217529         25.43
     2.207066          2.20
     2.206140         21.74
     2.205306         18.20
     2.204806        153.88
     2.174362         20.71
     2.135843         82.67
     2.132912          0.22
     2.115748         24.30
     2.109792         22.26
     2.109209          2.69
     2.102073        101.68
     2.101351          2.45
     2.100919         36.40
     2.099977         23.80
     2.051417          0.73
     2.041088         33.24
     2.015990         22.66
     2.009630         36.48
     1.999333          0.02
     1.984362         17.69
     1.979084          2.25
     1.978000          0.07
     1.971553          1.12
     1.965703          0.46
     1.965349          9.33
     1.960572         11.47
     1.957192          1.21
     1.956609         71.02
     1.956260          9.90
     1.952688         12.29
     1.951647          2.76
     1.951549          1.38
     1.939283         28.41
     1.926226         13.54
     1.919407          0.84
     1.900508         53.56
     1.894787         28.78
     1.894681         27.61
     1.881925         51.26
     1.879419          5.85
     1.878490          2.11
     1.877096         20.54
     1.865987         27.95
     1.865583          0.40
     1.861195         34.68
     1.855790          2.61
     1.826247         15.93
     1.817883          4.70
     1.811735         27.47
     1.810683          0.86
     1.800147         40.89
     1.796925         34.87
     1.796474          8.57
     1.796204         14.68
     1.790403         22.32
     1.784393          2.32
     1.773725          3.18
     1.772944          2.13
     1.760362         13.72
     1.753821         26.31
     1.738149         16.93
     1.733420          0.70
     1.727119          2.83
     1.726879         63.55
     1.716496          9.36
     1.714250         15.96
     1.713311         29.16
     1.709116         25.86
     1.697010          7.79
     1.696642         13.01
     1.696123          5.60
     1.696099         17.74
     1.687367          3.37
     1.679923          1.17
     1.678745          3.99
     1.662578         18.95
     1.658307         38.25
     1.658023          2.37
     1.654892          7.03
     1.651827         36.24
     1.651197          9.13
     1.649455          4.18
     1.648254         10.54
     1.647419          5.87
     1.646905          1.29
     1.646500          2.57
     1.646431          3.47
     1.646420          0.02
     1.645865          0.37
     1.639034          7.35
     1.638692          0.76
     1.638487          2.72
     1.635716          8.04
     1.632584          6.94
     1.631601         34.92
     1.631503         39.24
     1.631129          9.77
     1.630589          4.28
     1.611580          6.68
     1.605309          4.85
     1.600928          2.04
     1.594063          5.44
     1.588127         15.63
     1.587692          6.45
     1.587194          2.09
     1.582846          1.61
     1.575568          2.85
     1.574839          7.66
     1.572922          0.31
     1.572508          0.29
     1.561864         15.16
     1.560918          1.37
     1.559573          2.41
     1.550069          1.45
     1.532888          2.40
     1.532721          2.00
     1.529150          3.95
     1.526692          5.14
     1.526195          0.17
     1.522804          6.27
     1.522420          4.12
     1.521982         11.05
     1.521476          0.41
     1.520260          2.24
     1.519760          3.20
     1.513945         11.71
     1.507709          1.85
     1.504856          2.00
     1.499500         11.43
     1.495695          1.52
     1.492902          8.94
     1.492643          6.77
     1.492488          3.00
     1.489740          0.29
     1.488271          4.94
     1.487673          0.25
     1.487657          1.33
     1.484313          7.80
     1.484203          3.02
     1.484168          7.74
     1.483965          6.65
     1.483500          0.00
     1.476705          1.57
     1.475905          1.01
     1.473205         47.52
     1.473079          0.72
     1.472285          8.37
     1.464883          3.27
     1.463748          6.22
     1.458681          0.21
     1.453849          9.96
     1.453802         10.19
     1.451254          0.59
     1.450389          2.69
     1.449954          7.16
     1.445277          4.26
     1.443562          1.53
     1.443234          4.73
     1.442861         11.31
     1.440849          3.65
     1.440106          0.89
     1.439477          0.20
     1.429336          6.60
     1.422188          3.83
     1.420615          3.84
     1.409359          7.41
     1.406528         13.70
     1.406139          1.94
     1.402152          0.02
     1.400901          4.58
     1.396541          1.66
     1.394795          3.77
     1.394289          5.39
     1.392959          6.81
     1.391535          2.08
     1.390865          2.04
     1.389711          0.14
     1.389426          0.02
     1.385261         15.50
     1.384601          1.47
     1.380479          9.98
     1.377474          2.12
     1.373847          7.78
     1.373726         14.69
     1.371126          3.22
     1.364733          4.31
     1.363107          4.09
     1.362525          0.40
     1.362335          0.57
     1.362066          1.60
     1.361869          2.10
     1.361752         16.80
     1.361706         14.93
     1.361510          0.27
     1.357791          2.66
     1.357519          1.56
     1.357208         20.27
     1.355632          3.98
     1.353847          1.14
     1.353634          0.24
     1.353017          1.63
     1.352825          2.37
     1.342098          5.18
     1.338469          3.51
     1.338443         10.39
     1.338294          2.83
     1.336900          8.55
     1.336181          0.01
     1.335927          1.89
     1.330293          0.09
     1.329708          0.59
     1.328498         13.15
     1.327968         11.58
     1.327915          9.10
     1.327733          7.89
     1.324561          2.38
     1.315429          4.36
     1.313511         11.84
     1.312693          5.53
     1.310771          0.71
     1.308399          2.06
     1.305390          4.47
     1.304210          3.39
     1.301383          6.46
     1.300972          1.95
     1.300520          2.79
     1.300485          0.01
     1.297813          3.10
     1.297228          0.22
     1.295750          0.72
     1.295518          1.02
     1.295445          2.68
     1.295214          1.96
     1.294939          0.20
     1.293629          0.16
     1.293091          1.24
     1.289547          2.72
     1.289014          1.42
     1.288847          1.11
     1.288256          3.14
     1.287957          2.96
     1.287909          0.30
     1.287702          0.29
     1.287459          1.38
     1.283858          1.56
     1.277709          8.05
     1.272709          3.83
     1.271173          9.24
     1.270949          2.89
     1.270694          0.17
     1.269251          0.61
     1.267718          0.86
     1.267299          4.23
     1.266533          2.38
     1.266249          3.81
     1.265775          1.00
     1.263121          0.54
     1.262273          1.32
     1.261773          0.11
     1.260911         14.44
     1.253772          0.03
     1.252327          1.41
     1.247186          0.55
     1.246833          0.92
     1.246683          9.63
     1.246592          1.50
     1.244854          0.45
     1.244648          0.53
     1.244374         10.79
     1.242310          2.23
     1.242220          0.82
     1.240938          0.76
     1.240356         16.76
     1.239881          2.45
     1.239733          1.77
     1.238204          2.04
     1.237733          4.87
     1.236211          1.91
     1.235559          5.55
     1.232648          1.67
     1.232386          0.55
     1.231949          5.25
     1.230770          0.87
     1.226690          0.30
     1.224343          2.50
     1.220520          6.29
     1.218879          1.66
     1.218429         11.31
     1.215948          2.17
     1.215837          1.94
     1.211968          0.49
     1.211636          1.83
     1.209898          4.34
     1.207128          8.41
     1.205698          1.55
     1.205650          3.03
     1.205448          0.03
     1.205262          0.11
     1.202540          3.54
     1.199600          0.20
     1.199408          0.32
     1.197649          3.98
     1.197163          1.46
     1.195183          1.78
     1.194944          0.01
     1.193519          0.00
     1.191782          9.64
     1.191361          3.58
     1.190617          0.12
     1.189474          8.64
     1.189239          2.35
     1.189038          2.12
     1.188847          7.63
     1.188587          1.21
     1.188170          1.54
     1.187454          2.65
     1.187450          1.93
     1.187272          0.60
     1.187064          0.82
     1.186800          0.00
     1.185242          2.31
     1.184670          0.52
     1.184257          9.61
     1.184128          1.84
     1.181817          5.26
     1.181675          0.44
     1.181654          0.10
     1.181034          0.01
     1.177203          4.44
     1.176310          3.36
     1.175840         12.27
     1.175814          1.80
     1.173776          8.37
     1.169414          1.01
     1.167351          1.83
     1.164842          3.90
     1.164228          0.51
     1.163896          0.09
     1.162186          0.58
     1.158900          2.73
     1.158806          0.53
     1.155618          1.65
     1.154892          2.25
     1.154144          2.40
     1.151413          1.52
     1.149738          0.03
     1.149360          0.51
     1.147981          0.63
     1.147802          1.26
     1.146032          1.74
     1.145915          1.26
     1.145845          0.55
     1.142833          0.80
     1.142207          0.84
     1.141123          2.21
     1.140101          2.82
     1.139894          0.95
     1.139549          5.77
     1.138615         12.81
     1.138319          4.69
     1.137746          0.72
     1.137682          0.35
     1.137571          0.31
     1.137065          1.23
     1.137049          0.15
     1.132491          1.14
     1.132291          2.90
     1.132223          4.67
     1.130920          0.27
     1.130331          5.78
     1.128642          2.72
     1.128374          0.07
     1.127173          0.71
     1.127017          8.18
     1.126864          2.38
     1.125820          4.42
     1.125465          1.52
     1.125355          2.70
     1.123572          1.13
     1.123220          0.23
     1.122637          6.14
     1.122400          2.03
     1.122211          4.38
     1.122076          0.56
     1.122044          0.71
     1.121973          0.26
     1.121772          0.48
     1.121621          6.29
     1.121508          0.01
     1.118477          7.22
     1.117648          0.02
     1.117332          1.54
     1.116899          3.61
     1.116639          9.22
     1.112224          0.14
     1.112139          0.02
     1.110925          0.94
     1.108765          6.91
     1.108616          1.03
     1.108447          0.25
     1.107633          3.06
     1.106911          0.23
     1.105538          1.12
     1.105349          1.88
     1.104969          1.19
     1.104634          1.75
     1.104055          0.77
     1.103533          0.00
     1.103070          2.36
     1.102653          2.26
     1.102403          2.07
     1.100798          0.53
     1.100669          1.40
     1.098836          0.28
     1.098279          1.96
     1.097937          0.36
     1.097793          0.82
     1.095085          0.41
     1.094156          2.48
     1.093367          0.44
     1.091261          0.79
     1.089514          1.14
     1.088579          4.33
     1.087361          0.65
     1.087181          0.10
     1.086881          2.58
     1.085970          2.48
     1.085335          1.31
     1.084754          0.62
     1.080467          1.02
     1.080075          1.88
     1.079992          0.05
##############################################################################
###                            Comments                                    ###
##############################################################################
###   Diffraction pattern calculated by Match!. 
###   I/Ic calculated by Match!. 
###   Space group has been derived from given symmetry operations. 
##############################################################################


