##############################################################################
###               Crystal structure data exported by Match!                ###
##############################################################################
###                           Data published by:                           ###
###                                                                        ###
###               COD (Crystallography Open Database)
##############################################################################
data_1539863
_citation_journal_full    'Zeolites'
_citation_journal_volume  '8'
_citation_page_first  '74'
_citation_page_last   '76'
_citation_year  '1988'
_citation_title  'The framework topology of zeolite EU-1'
loop_
_publ_author_name
  'Briscoe N.A.'
  'Johnson D.W.jr.'
  'Kokotailo G.T.'
  'Shannon M.D.'
  'McCusker L.B.'
_chemical_formula_sum  'O2 Si'
_chemical_name_common  'Silica'
_symmetry_space_group_name_H-M 'C m m a'
_space_group_IT_number 67
_space_group_crystal_system 'orthorhombic'
loop_
_symmetry_equiv_pos_as_xyz
   'x, y, z'
   'x+0.5, y+0.5, z'
   '-x, -y+0.5, z'
   '-x+0.5, -y, z'
   'x, -y, -z'
   'x+0.5, -y+0.5, -z'
   '-x, y+0.5, -z'
   '-x+0.5, y, -z'
   '-x, -y, -z'
   '-x+0.5, -y+0.5, -z'
   'x, y+0.5, -z'
   'x+0.5, y, -z'
   '-x, y, z'
   '-x+0.5, y+0.5, z'
   'x, -y+0.5, z'
   'x+0.5, -y, z'
_cell_length_a       13.69500
_cell_length_b       22.32600
_cell_length_c       20.17800
_cell_angle_alpha    90.0000
_cell_angle_beta     90.0000
_cell_angle_gamma    90.0000
_cell_formula_units_Z 112
loop_
_atom_site_label
_atom_site_fract_x
_atom_site_fract_y
_atom_site_fract_z
_atom_site_occupancy
_atom_site_B_iso_or_equiv
o      0.158   0.307   0.089    1.00000    1.000
o      0.250   0.363   0.000    1.00000    1.000
si      0.187   0.370   0.063    1.00000    1.000
si      0.000   0.450   0.308    1.00000    1.000
o      0.244   0.391   0.374    1.00000    1.000
o      0.000   0.485   0.376    1.00000    1.000
si      0.191   0.374   0.308    1.00000    1.000
si      0.115   0.250   0.123    1.00000    1.000
o      0.404   0.425   0.427    1.00000    1.000
o      0.094   0.409   0.303    1.00000    1.000
o      0.139   0.250   0.199    1.00000    1.000
o      0.000   0.250   0.113    1.00000    1.000
si      0.000   0.448   0.053    1.00000    1.000
o      0.405   0.431   0.176    1.00000    1.000
si      0.289   0.431   0.185    1.00000    1.000
o      0.000   0.477   0.126    1.00000    1.000
o      0.250   0.403   0.500    1.00000    1.000
o      0.250   0.500   0.196    1.00000    1.000
si      0.000   0.528   0.181    1.00000    1.000
o      0.245   0.405   0.118    1.00000    1.000
o      0.260   0.389   0.246    1.00000    1.000
o      0.000   0.500   0.000    1.00000    1.000
o      0.250   0.500   0.424    1.00000    1.000
o      0.164   0.306   0.309    1.00000    1.000
si      0.117   0.250   0.277    1.00000    1.000
o      0.094   0.407   0.044    1.00000    1.000
o      0.000   0.497   0.251    1.00000    1.000
si      0.000   0.534   0.432    1.00000    1.000
o      0.000   0.250   0.289    1.00000    1.000
si      0.287   0.430   0.431    1.00000    1.000
o      0.000   0.500   0.500    1.00000    1.000
_cell_measurement_wavelength    1.541874
_cell_measurement_radiation   'x-rays'
_exptl_crystal_density_diffrn    1.811000
loop_
_pd_peak_d_spacing
_pd_peak_intensity
    20.177999        146.74
    11.163000       1000.00
    10.104552        724.57
    10.089000         53.31
     9.767861        153.83
     7.633278         35.40
     7.484975         33.13
     6.847500        113.66
     6.726000          1.03
     6.484300          3.40
     6.220441         66.52
     5.836868         43.01
     5.827875          0.23
     5.761067         60.64
     5.665777          0.39
     5.606993         16.43
     5.581500         13.04
     5.487210         10.88
     5.379488          3.65
     5.052276          1.18
     5.044500          2.11
     4.883931         18.91
     4.798380          3.22
     4.688455          0.61
     4.630650        287.58
     4.596923          0.04
     4.408369         50.98
     4.366490         77.92
     4.326338        377.36
     4.295198         84.39
     4.230197          3.97
     4.154303          2.92
     4.088723          3.87
     4.061395          0.72
     4.035600          3.56
     3.994087        298.76
     3.976178          0.65
     3.912954          3.05
     3.820846         35.34
     3.816639          2.46
     3.814122          2.85
     3.795208        111.08
     3.742488          2.48
     3.724261          1.74
     3.721000         85.75
     3.659300          0.10
     3.638612         10.64
     3.630566          2.48
     3.589974          7.32
     3.491126          4.12
     3.476721          1.44
     3.434217          3.69
     3.423750         57.16
     3.375504          7.15
     3.368184          0.02
     3.363000          1.76
     3.346559         77.40
     3.319451          8.00
     3.284003          0.00
     3.273255        183.79
     3.270320          7.41
     3.269455         18.52
     3.255954          8.82
     3.248112         89.49
     3.242150          1.92
     3.231576         13.70
     3.231019          0.00
     3.227364         11.17
     3.220048          0.93
     3.152865         35.09
     3.113491          5.24
     3.110220          0.08
     3.081086         18.65
     3.070135         17.32
     3.051192          3.63
     3.043379          0.05
     3.018594          1.52
     2.996177          0.86
     2.994478          1.00
     2.990650          9.17
     2.968773          1.48
     2.951034         11.26
     2.943228          9.73
     2.940465         34.29
     2.924909          0.25
     2.918434          0.08
     2.913938          2.18
     2.888379          1.16
     2.883789         12.26
     2.882571          9.21
     2.880533          0.05
     2.832888          0.00
     2.820077          0.25
     2.803497          2.91
     2.801169          0.00
     2.798516          0.18
     2.791020          1.64
     2.790750          3.22
     2.764435          3.09
     2.745849          1.03
     2.743605          1.36
     2.735612          0.01
     2.697395         36.89
     2.694273          0.11
     2.689744          2.88
     2.687902          3.06
     2.677268          0.00
     2.656761          2.37
     2.655165          0.14
     2.645041          3.95
     2.637650          6.50
     2.636088          3.86
     2.624986          0.50
     2.610767         12.63
     2.592839          5.77
     2.584571          0.14
     2.584357          2.96
     2.577673          9.38
     2.563417          1.88
     2.561176          4.62
     2.549828          1.16
     2.544426          0.04
     2.542166          0.04
     2.540385          8.13
     2.530912          0.21
     2.526138          0.01
     2.522250         35.47
     2.520510          2.03
     2.519499          6.58
     2.503570          2.32
     2.503526          0.02
     2.500085          0.63
     2.494992          0.15
     2.490863          0.83
     2.465361          0.24
     2.461541          1.01
     2.460232         16.88
     2.444430          1.48
     2.441965          3.22
     2.436881          0.00
     2.423279          5.74
     2.422928          1.22
     2.412406         23.82
     2.401070          0.34
     2.399190          0.00
     2.398868          0.01
     2.393199         17.14
     2.384771          5.69
     2.372495          0.62
     2.366793          0.51
     2.364847          3.56
     2.359397          0.00
     2.353251          0.00
     2.345627          1.30
     2.344227          0.00
     2.321264         15.49
     2.319273         14.41
     2.316263          0.01
     2.315325          0.16
     2.315205          0.01
     2.300081          1.21
     2.298461          2.71
     2.295365          5.03
     2.294518          0.24
     2.290249         20.03
     2.282500          0.31
     2.281847          0.89
     2.278785          6.10
     2.274635          0.08
     2.268035          1.58
     2.254724          0.04
     2.254000          2.04
     2.242000          0.98
     2.236232          0.28
     2.232600          0.43
     2.226238          0.16
     2.222625          0.01
     2.219058          1.18
     2.205642          0.60
     2.205097          0.04
     2.204184          0.15
     2.201761          0.99
     2.198105          0.61
     2.197230          0.30
     2.196968          0.48
     2.194263          0.01
     2.183245          0.24
     2.179864          0.10
     2.178983          5.83
     2.176345          1.80
     2.168402          0.02
     2.168010          1.09
     2.167031          5.71
     2.163295          1.07
     2.163169          2.45
     2.162197          0.22
     2.161433          3.91
     2.150845          0.52
     2.147599          0.35
     2.139361          9.04
     2.137185          4.23
     2.130698          1.22
     2.130485          0.13
     2.122625          8.30
     2.122022          0.29
     2.120802          2.45
     2.118917          0.85
     2.118813          1.53
     2.116517          0.07
     2.115099          0.01
     2.114203          0.02
     2.112957          1.85
     2.112672         16.56
     2.110977          0.34
     2.101187          0.16
     2.092915          1.50
     2.088608          0.33
     2.087808          3.71
     2.080434          1.07
     2.079532          0.03
     2.077151          0.88
     2.073480          0.26
     2.067822          0.00
     2.066996          1.24
     2.064115          0.24
     2.059288          0.53
     2.050847          0.23
     2.049179          0.05
     2.044362          0.48
     2.042217          1.20
     2.041585          0.00
     2.035210          0.61
     2.030697          1.40
     2.024217          0.04
     2.020910          1.64
     2.017800          3.59
     2.016390          0.31
     2.015580          0.15
     2.005034          0.93
     2.004271          5.63
     2.000851         12.15
     1.997909          1.05
     1.997842          0.03
     1.997044          8.09
     1.990587          0.57
     1.988316          0.00
     1.988089          0.01
     1.986741          8.00
     1.985622          0.85
     1.985342          0.76
     1.982511          6.54
     1.979009          0.37
     1.977775          1.14
     1.975441          0.95
     1.969097          0.46
     1.958053          2.30
     1.956477          2.40
     1.956004          0.14
     1.953572          0.63
     1.948675          0.12
     1.945623         21.86
     1.942625          0.60
     1.939932          5.46
     1.936641          0.00
     1.936591          0.74
     1.935514          1.55
     1.928087          0.18
     1.924239          1.98
     1.923828          1.51
     1.921309          7.80
     1.920356          0.42
     1.918471          1.29
     1.917870          0.54
     1.917792          2.49
     1.913582          0.76
     1.910423          0.00
     1.908320         16.46
     1.907061          0.34
     1.906546          0.88
     1.897604          0.52
     1.897013          3.41
     1.888592          0.01
     1.883872          0.05
     1.878613          4.05
     1.875634          0.26
     1.871955          0.01
     1.871703          1.36
     1.871244         16.79
     1.870120          0.55
     1.868998          0.12
     1.865394          0.11
##############################################################################
###                            Comments                                    ###
##############################################################################
###   Diffraction pattern calculated by Match!. 
###   I/Ic calculated by Match!. 
###   Space group has been derived from given symmetry operations. 
##############################################################################


