##############################################################################
###               Crystal structure data exported by Match!                ###
##############################################################################
###                           Data published by:                           ###
###                                                                        ###
###               COD (Crystallography Open Database)
##############################################################################
data_4513278
_citation_journal_full    'Design''
_citation_journal_volume  '15(8)'
_citation_page_first  '3950'
_citation_year  '2015'
_citation_title  'Cascade of High-Pressure Transitions of Claudetite II and the First PolarPhase of Arsenic(III) Oxide'
loop_
_publ_author_name
  'Gunka Piotr A.'
  'Dranka Maciej'
  'Hanfland Michael'
  'Dziubek Kamil F.'
  'Katrusiak Andrzej'
  'Zachara Janusz'
_chemical_formula_sum  'As2 O3'
_chemical_name_common  'Arsenic(III) trioxide'
_symmetry_space_group_name_H-M 'P 1 21/n 1'
_space_group_IT_number 14
_space_group_crystal_system 'monoclinic'
loop_
_symmetry_equiv_pos_as_xyz
   'x, y, z'
   '-x+0.5, y+0.5, -z+0.5'
   '-x, -y, -z'
   'x+0.5, -y+0.5, z+0.5'
_cell_length_a        7.98530
_cell_length_b        4.55112
_cell_length_c        9.00000
_cell_angle_alpha    90.0000
_cell_angle_beta    102.0140
_cell_angle_gamma    90.0000
_cell_formula_units_Z 4
loop_
_atom_site_label
_atom_site_fract_x
_atom_site_fract_y
_atom_site_fract_z
_atom_site_occupancy
_atom_site_B_iso_or_equiv
as      0.683   0.212   0.126    1.00000    1.397
as      0.385   0.173   0.303    1.00000    1.484
o      0.730   0.366   0.314    1.00000    2.210
o      0.465   0.151   0.130    1.00000    2.289
o      0.175   0.050   0.212    1.00000    1.973
_cell_measurement_wavelength    1.541874
_cell_measurement_radiation   'x-rays'
_cell_measurement_temperature    293.000000
_cell_measurement_pressure       370000.000000
_exptl_crystal_density_diffrn    4.107000
loop_
_pd_peak_d_spacing
_pd_peak_intensity
     6.559291         21.07
     5.318504         13.30
     4.401435        437.60
     4.042776         24.15
     3.932244         97.68
     3.905198        110.67
     3.739206         43.25
     3.457907       1000.00
     3.279645        311.07
     3.163879         70.40
     3.098163         10.65
     2.963683          3.90
     2.956934        179.10
     2.953391         26.79
     2.790711         61.54
     2.683507          1.17
     2.660758        184.05
     2.659252        104.55
     2.651155        183.63
     2.575978         41.84
     2.479545        115.84
     2.466147          2.23
     2.366209         47.64
     2.296032          1.67
     2.290814        107.31
     2.275560         91.78
     2.272349         25.21
     2.259836          2.30
     2.241789         74.93
     2.203140        119.49
     2.200718         31.20
     2.186430          0.47
     2.184723         18.08
     2.176463          0.05
     2.149862         24.07
     2.114734         13.06
     2.099411         75.94
     2.092110          2.90
     2.021388          7.49
     2.012397         13.43
     2.003930         28.18
     1.981242         49.39
     1.970797          1.02
     1.966122          9.51
     1.963108          9.24
     1.952599         20.95
     1.940870          2.76
     1.937738          0.03
     1.917807         39.37
     1.913056         19.67
     1.877444         17.12
     1.877247          0.01
     1.869603         32.56
     1.839999          0.85
     1.828029          2.67
     1.803370         19.20
     1.799720         80.58
     1.798196          0.06
     1.794419         85.37
     1.785303          0.77
     1.772835          1.43
     1.766421         47.58
     1.741747          0.38
     1.728954         40.37
     1.726722         52.76
     1.718773         22.16
     1.713339         19.92
     1.705434         14.71
     1.695916         13.87
     1.680616          8.86
     1.676137          6.61
     1.673613          3.08
     1.661267         45.68
     1.651928         18.78
     1.646735         21.84
     1.645575          3.86
     1.641995          5.61
     1.640174          1.25
     1.639823          2.49
     1.630991          0.99
     1.623644         47.22
     1.597664         36.39
     1.596274         15.97
     1.581940         20.68
     1.576608          5.63
     1.560551         12.06
     1.559528         33.74
     1.549081          0.51
     1.547522          9.45
     1.542735         69.91
     1.529240          3.78
     1.527470          3.53
     1.515953         48.29
     1.507201          0.02
     1.506307          5.61
     1.500601          5.13
     1.495002          1.51
     1.492089          1.18
     1.489209         28.89
     1.485767          4.94
     1.481842          6.35
     1.478467          0.73
     1.478024          1.39
     1.477474          2.24
     1.476695          3.08
     1.467145          3.18
     1.458854         15.45
     1.451761          5.38
     1.451027          4.04
     1.438262          0.80
     1.434238          7.47
     1.427962          3.94
     1.424900         26.89
     1.424340          0.56
     1.418446          0.42
     1.415790          0.41
     1.415109          2.64
     1.414090          2.01
     1.412967         17.25
     1.412407          7.11
     1.411595         22.81
     1.406131         10.77
     1.398510          1.73
     1.397425          6.46
     1.396381         59.02
     1.395356         18.86
     1.393956         46.68
     1.392468          2.88
     1.385738          6.97
     1.379997          2.68
     1.376874          8.83
     1.356466          1.64
     1.349766          9.41
     1.347592          0.53
     1.346688          1.57
     1.341753         18.39
     1.335139          5.27
     1.333445          0.20
     1.330379          0.81
     1.329704          0.26
     1.329626          0.05
     1.325577          0.02
     1.324220          5.66
     1.321695         13.59
     1.317700          1.98
     1.316711          3.64
     1.313176         20.78
     1.311858          1.57
     1.311325          5.60
     1.310748         15.38
     1.307198          4.56
     1.306805          3.79
     1.301733          1.59
     1.297489         16.65
     1.293864          4.50
     1.287989          0.67
     1.287844          0.01
     1.284224          0.05
     1.281147         34.03
     1.277106          7.63
     1.276274          0.69
     1.275157          4.48
     1.273304          1.30
     1.272692         35.04
     1.270216          1.76
     1.261627         22.22
     1.260535          3.43
     1.260063          8.78
     1.256728         10.44
     1.252199          3.61
     1.251544         18.79
     1.249031          0.13
     1.248188          5.60
     1.246402          3.09
     1.245913          7.21
     1.244590          2.60
     1.244067          8.13
     1.239772          0.56
     1.239315          0.30
     1.239109          0.04
     1.237912          2.37
     1.237763         12.47
     1.235960          0.22
     1.233793          1.24
     1.233074          0.86
     1.232667          4.87
     1.229596          1.05
     1.226216         32.18
     1.221694          1.04
     1.212130          1.55
     1.211249          3.42
     1.207815          0.74
     1.205909          0.45
     1.205330         12.87
     1.202889         16.49
     1.198454          8.75
     1.197969          3.21
     1.195588          0.26
     1.195245          0.11
     1.194379          9.34
     1.186436         11.31
     1.183104          0.56
     1.182536          3.59
     1.181907          0.79
     1.167277          7.64
     1.162954          1.35
     1.162252         13.82
     1.161672          0.02
     1.159929          0.03
     1.152636          0.53
     1.151559          1.97
     1.151417          0.64
     1.150868          2.65
     1.149246         15.62
     1.148016          0.17
     1.147203          0.47
     1.145454          0.22
     1.145407          1.07
     1.145047          1.05
     1.140067          1.95
     1.137780          0.01
     1.137126          0.17
     1.136827          3.97
     1.136521          0.74
     1.136175          5.97
     1.132718          0.01
     1.129918          1.17
     1.128394         12.46
     1.128180          1.40
     1.125896          0.27
     1.124793          0.04
     1.123498          1.08
     1.121827          3.66
     1.121040          2.84
     1.120895          0.31
     1.120234          0.02
     1.118410          0.29
     1.115385          1.21
     1.113688          3.82
     1.113589          6.00
     1.112605          0.50
     1.111175          2.35
     1.108482          0.73
     1.105409          0.74
     1.102939          0.48
     1.101570          0.63
     1.100661          0.04
     1.100359          0.02
     1.099654          2.56
     1.098718          0.92
     1.097489          2.81
     1.097011          1.48
     1.095997          0.02
     1.094085          0.00
     1.093215          6.84
     1.092362          1.09
     1.091844          4.02
     1.090754          0.57
     1.089702          0.12
     1.089224         10.80
     1.088284          0.39
     1.088231          0.56
     1.087319          4.42
     1.083679          0.13
     1.083000          0.91
     1.079245          6.56
     1.077584          6.05
     1.076415          1.66
     1.076107          0.09
     1.074931          0.45
     1.072325          0.16
     1.070774          6.47
     1.069542          1.09
     1.068189          0.29
     1.066906          4.67
     1.066517          1.17
     1.064036          0.55
     1.063701          0.24
     1.063450          9.65
     1.062978          3.65
     1.062625          1.09
     1.062470          0.15
     1.061882          0.00
     1.061480          0.09
     1.060912          2.19
     1.060823          0.23
     1.058808          1.68
     1.057367          1.08
     1.055076         13.91
     1.054626          4.14
     1.054607          1.50
     1.050123          0.94
     1.050003          1.49
     1.049705          0.05
     1.046055          0.48
     1.046020          1.87
     1.045865          1.84
     1.045560          0.24
     1.043788          2.25
     1.043593          0.14
     1.042567          5.59
     1.042314          1.75
     1.040778          2.11
     1.040183          1.27
     1.037111          0.71
     1.036665          0.43
     1.035786          2.18
     1.034010          5.69
     1.032721          2.66
     1.031960          0.04
     1.030360          7.86
     1.029936          0.83
     1.025397          3.08
     1.025002          0.15
     1.023126          1.74
     1.022483          8.55
     1.019440         11.28
     1.018915          0.33
     1.016979          4.72
     1.014759          9.52
     1.012327          0.06
     1.010694          1.42
     1.009299          0.55
     1.007403          1.13
     1.006575          1.95
##############################################################################
###                            Comments                                    ###
##############################################################################
###   Diffraction pattern calculated by Match!. 
###   I/Ic calculated by Match!. 
##############################################################################


