##############################################################################
###               Crystal structure data exported by Match!                ###
##############################################################################
###                           Data published by:                           ###
###                                                                        ###
###               COD (Crystallography Open Database)
##############################################################################
data_9013446
_citation_journal_full    'Journal of Solid State Chemistry'
_citation_journal_volume  '23'
_citation_page_first  '327'
_citation_page_last   '339'
_citation_year  '1978'
_citation_title  'Oxydes de plomb. IV. Evolution structurale de l'oxyde Pb3O4 entre 240 et 5 K et mecanisme de la transition Locality: synthetic Sample: T = 5 K'
loop_
_publ_author_name
  'Gavarri J. R.'
  'Weigel D.'
  'Hewat A. W.'
_chemical_formula_sum  'O4 Pb3'
_chemical_name_mineral  'Minium'
_symmetry_space_group_name_H-M 'P b a m'
_space_group_IT_number 55
_space_group_crystal_system 'orthorhombic'
loop_
_symmetry_equiv_pos_as_xyz
   'x, y, z'
   '-x, -y, z'
   'x+0.5, -y+0.5, -z'
   '-x+0.5, y+0.5, -z'
   '-x, -y, -z'
   'x, y, -z'
   '-x+0.5, y+0.5, z'
   'x+0.5, -y+0.5, z'
_cell_length_a        9.13050
_cell_length_b        8.46290
_cell_length_c        6.56770
_cell_angle_alpha    90.0000
_cell_angle_beta     90.0000
_cell_angle_gamma    90.0000
loop_
_atom_site_label
_atom_site_fract_x
_atom_site_fract_y
_atom_site_fract_z
_atom_site_occupancy
_atom_site_B_iso_or_equiv
pb      0.000   0.500   0.249    1.00000    1.000
pb      0.154   0.153   0.000    1.00000    1.000
pb      0.170   0.870   0.500    1.00000    1.000
o      0.672   0.173   0.250    1.00000    1.000
o      0.092   0.641   0.000    1.00000    1.000
o      0.129   0.599   0.500    1.00000    1.000
_cell_measurement_wavelength    1.541874
_cell_measurement_radiation   'x-rays'
_cell_measurement_temperature    5.000000
_exptl_crystal_density_diffrn    8.973000
loop_
_pd_peak_d_spacing
_pd_peak_intensity
     6.567700          0.03
     6.206783        201.19
     4.565250          0.26
     4.511056          0.10
     4.231450         42.35
     4.017924          8.73
     3.839201          4.21
     3.748596         13.62
     3.557098         23.70
     3.427416        767.40
     3.314453       1000.00
     3.283850         91.48
     3.103391        228.43
     2.902632        672.44
     2.863930        558.42
     2.805911          2.11
     2.695258        333.96
     2.665823        327.62
     2.625194          1.22
     2.594275        165.25
     2.542658          0.95
     2.495497          2.21
     2.493459          3.55
     2.470775         15.30
     2.399778         14.28
     2.312544          4.61
     2.282625          4.26
     2.255528        102.85
     2.254023         83.53
     2.203867          0.15
     2.189233          0.02
     2.158398          7.13
     2.156114          4.76
     2.115725         22.78
     2.089371        158.84
     2.083378          0.64
     2.068928         13.97
     2.064572          0.04
     2.061113          4.06
     2.013812          2.47
     2.008962         75.80
     1.974341         12.91
     1.973996          1.52
     1.973332          2.42
     1.966548         40.31
     1.944412          4.87
     1.937548         12.18
     1.922393        145.18
     1.921097          5.82
     1.919600        125.45
     1.901767        199.01
     1.874298        176.25
     1.842513          5.43
     1.829956          2.43
     1.788912          0.23
     1.785018          7.12
     1.778549        235.17
     1.774471          4.98
     1.750478        446.69
     1.745737         15.36
     1.739278          0.77
     1.737209          0.83
     1.722531          5.93
     1.713708         29.73
     1.713047         31.14
     1.699299          0.71
     1.679451          1.91
     1.676635          0.14
     1.664226         34.01
     1.657226          2.78
     1.641925        119.37
     1.638560          1.42
     1.624534        120.30
     1.617344         27.41
     1.613240          3.93
     1.587324          7.88
     1.587017          1.49
     1.580007          2.12
     1.568297         95.57
     1.561129          5.55
     1.553170         57.21
     1.551696         79.88
     1.545035          0.06
     1.542619         86.42
     1.535576          0.81
     1.532949         42.86
     1.530726          4.79
     1.521750         74.31
     1.521367          0.71
     1.519913          0.92
     1.510121          0.69
     1.509657          0.46
     1.503685          1.32
     1.500677         15.40
     1.497729          2.60
     1.493261          1.79
     1.492824          2.58
     1.484475         23.66
     1.482476          0.41
     1.480185          1.74
     1.479221          3.64
     1.460241          2.63
     1.451316         40.45
     1.443332          2.75
     1.443072         12.01
     1.431965          4.50
     1.428899          0.39
     1.424433        121.79
     1.410483         30.11
     1.402956          0.06
     1.402222         82.17
     1.399096          1.34
     1.393949          1.90
     1.389053          2.00
     1.383437          2.19
     1.382395          2.20
     1.380705          6.12
     1.379040          7.19
     1.378510         13.94
     1.367506          3.46
     1.363574         35.88
     1.362689          4.47
     1.360821          0.83
     1.359587          0.03
     1.355100          3.48
     1.352754         13.13
     1.348704         40.24
     1.347629          3.16
     1.339308          0.20
     1.332912          0.99
     1.331360         42.66
     1.331110         58.12
     1.324875          2.37
     1.320125          0.75
     1.316681          0.00
     1.313540          0.01
     1.312597         32.95
     1.312300          0.11
     1.297138          7.37
     1.295993          0.03
     1.289135          0.73
     1.286126          6.11
     1.285078          0.04
     1.284915         44.10
     1.284242          1.91
     1.283131          3.50
     1.279734          0.52
     1.274103          6.26
     1.271329         29.47
     1.265952          0.22
     1.264997          1.61
     1.262327          0.52
     1.256180          0.20
     1.256110          0.09
     1.255710          1.73
     1.254487          0.62
     1.249532          0.29
     1.248515         30.82
     1.247749         53.11
     1.246730         29.10
     1.246481          3.40
     1.242811         43.05
     1.241357         16.26
     1.240132          0.30
     1.236131          1.40
     1.235387          3.35
     1.225664          5.99
     1.224620         28.06
     1.219760          2.07
     1.214096          2.06
     1.209648          0.24
     1.208442          3.54
     1.205154          2.43
     1.199983         43.25
     1.199889          0.44
     1.198525          0.12
     1.198375          0.99
     1.193950          0.05
     1.193280          0.41
     1.192389          0.82
     1.185699          3.71
     1.183924         30.20
     1.180779          0.49
     1.180352          5.32
     1.179053          0.02
     1.175826         20.88
     1.173096          0.10
     1.168867          7.68
     1.168821         18.76
     1.168699          6.54
     1.165352          2.90
     1.165145          5.01
     1.161162          5.53
     1.159825          0.38
     1.156272         82.77
     1.154982         25.44
     1.152227          7.80
     1.150624          0.08
     1.147624          0.63
     1.142472          0.06
     1.141312          0.58
     1.141108          0.86
     1.138494          0.42
     1.131630          1.66
     1.131073          0.74
     1.128330         17.69
     1.127764         49.09
     1.127011         32.01
     1.125881         41.01
     1.124460          2.89
     1.123583         41.05
     1.120505         27.61
     1.116270          0.45
     1.116109         47.98
     1.115958          0.41
     1.115197          1.22
     1.114664         22.28
     1.113751          0.35
     1.110850          1.23
     1.110310          0.06
     1.108923          0.20
     1.107715          5.05
     1.107493          0.00
     1.106528          1.87
     1.104818          0.05
     1.101933          5.97
     1.101048          7.51
     1.100488         16.22
     1.099396          0.94
     1.099001          2.57
     1.094776          1.61
     1.094617          2.63
     1.086744          0.08
     1.084040          0.61
     1.083208         18.80
     1.079840          1.64
     1.079199          3.43
     1.078057         10.08
     1.077981         26.30
     1.075904          1.13
     1.069914         22.67
     1.069886          3.13
     1.069415          0.51
     1.068383          3.74
     1.064447         16.08
     1.063078          5.32
     1.062643          1.58
     1.059733          8.73
     1.058002          0.27
     1.057964          1.30
     1.057863         10.38
     1.057498          1.92
     1.056877          0.98
     1.056125          0.00
     1.055756          5.55
     1.054522          0.36
     1.052666          0.01
     1.052211          4.10
     1.051815          0.74
     1.051290          0.05
     1.050833          1.28
     1.047746          0.32
     1.047182          0.01
     1.044685          9.64
     1.044536          5.42
     1.044401          2.93
     1.041689          2.74
     1.041395          3.21
     1.037832          0.20
     1.037635         10.75
     1.034464         18.54
     1.034003         25.64
     1.033164          5.50
     1.032286          6.90
     1.031072          0.70
     1.030988          0.05
     1.030557          1.03
     1.022478          0.54
     1.021866          2.99
     1.020613          0.55
     1.018099          2.12
     1.015966          4.26
     1.014169          0.05
     1.013955          0.67
     1.012040          2.01
     1.011898         21.18
     1.009361          0.47
     1.008076          0.58
     1.007288         18.73
     1.007027          0.42
     1.006906          0.22
##############################################################################
###                            Comments                                    ###
##############################################################################
###   Diffraction pattern calculated by Match!. 
###   I/Ic calculated by Match!. 
##############################################################################


