##############################################################################
###               Crystal structure data exported by Match!                ###
##############################################################################
###                           Data published by:                           ###
###                                                                        ###
###               COD (Crystallography Open Database)
##############################################################################
data_4124064
_citation_journal_full    'Journal of the American Chemical Society'
_citation_journal_volume  '126'
_citation_page_first  '9769'
_citation_page_last   '9775'
_citation_year  '2004'
_citation_title  'Chemical evaluation of hypothetical uninodal zeolites'
loop_
_publ_author_name
  'Foster M.D.'
  'Bell R.G.'
  'Friedrichs O.D.'
  'Paz F.A.A.'
  'Klinowski J.'
_chemical_formula_sum  'O2 Si'
_chemical_name_common  'Silica'
_symmetry_space_group_name_H-M 'C c c b'
_space_group_IT_number 68
_space_group_crystal_system 'orthorhombic'
loop_
_symmetry_equiv_pos_as_xyz
   'x, y, z'
   'x+0.5, y+0.5, z'
   '-x, -y+0.5, -z+0.5'
   '-x+0.5, -y, -z+0.5'
   '-x, -y, z'
   '-x+0.5, -y+0.5, z'
   'x, -y, -z'
   'x+0.5, -y+0.5, -z'
   '-x, y, -z'
   '-x+0.5, y+0.5, -z'
   'x, y+0.5, -z+0.5'
   'x+0.5, y, -z+0.5'
   '-x, y+0.5, z+0.5'
   '-x+0.5, y, z+0.5'
   'x, -y+0.5, z+0.5'
   'x+0.5, -y, z+0.5'
_cell_length_a        8.33168
_cell_length_b        7.50371
_cell_length_c       11.03365
_cell_angle_alpha    90.0000
_cell_angle_beta     90.0000
_cell_angle_gamma    90.0000
_cell_formula_units_Z 16
loop_
_atom_site_label
_atom_site_fract_x
_atom_site_fract_y
_atom_site_fract_z
_atom_site_occupancy
_atom_site_B_iso_or_equiv
o      0.750   0.750   0.876    1.00000    1.000
si      0.565   0.801   0.879    1.00000    1.000
o      0.500   0.750   0.750    1.00000    1.000
o      0.500   0.303   0.000    1.00000    1.000
o      0.500   0.000   0.896    1.00000    1.000
_cell_measurement_wavelength    1.541874
_cell_measurement_radiation   'x-rays'
_exptl_crystal_density_diffrn    2.314000
loop_
_pd_peak_d_spacing
_pd_peak_intensity
     5.516825         22.98
     4.976415        477.50
     4.165840       1000.00
     3.921646        940.88
     3.751855        810.71
     3.324491          8.25
     3.102400          4.76
     3.070128        159.32
     2.787867         87.96
     2.758413        164.66
     2.702922         61.48
     2.534891         25.44
     2.488207          6.33
     2.472401          1.07
     2.355269        160.50
     2.341069          2.77
     2.299921          1.04
     2.222404         19.77
     2.221724         40.21
     2.197383         89.60
     2.125549         21.78
     2.082920         78.42
     2.051874         97.04
     2.007341         96.40
     1.960823         45.47
     1.948655          0.55
     1.893757          1.83
     1.875927         65.61
     1.838942          6.00
     1.832758          9.46
     1.821097         15.64
     1.808719          0.15
     1.796788         29.49
     1.776057          1.01
     1.761312         12.73
     1.746410         61.88
     1.730278         10.63
     1.729315          2.22
     1.710499         18.66
     1.690308         32.42
     1.683671         23.67
     1.682321          5.55
     1.662246          0.64
     1.658805         11.25
     1.651259          0.01
     1.633772          1.58
     1.631994         25.61
     1.623067         38.23
     1.609313          0.01
     1.560293        122.02
     1.551200          9.32
     1.550969         29.03
     1.541347          0.30
     1.535064          0.12
     1.519767         18.27
     1.516792          0.26
     1.502239         37.85
     1.487690          0.43
     1.463916         31.41
     1.458718         16.59
     1.453691          1.24
     1.426728          3.34
     1.421559          2.54
     1.404575          9.13
     1.401202          0.63
     1.393933         16.89
     1.388613          1.78
     1.382941         28.53
     1.379206         49.86
     1.378556          0.76
     1.375946         25.92
     1.372110          8.39
     1.370586         51.13
     1.351920         10.79
     1.351461          0.70
     1.348517          0.11
     1.346611          0.01
     1.344930         31.07
     1.338855          0.46
     1.316770          4.03
     1.313209          3.65
     1.310952          2.18
     1.309394          1.51
     1.309314         25.99
     1.307215          5.26
     1.303457         27.95
     1.302279         11.49
     1.302069          0.00
     1.297595          1.07
     1.294510         41.26
     1.293973          0.62
     1.293302          3.49
     1.284044          3.00
     1.267445          0.86
     1.252454          5.02
     1.250618          0.57
     1.244104          0.54
     1.242659         11.09
     1.240317         31.82
     1.239003          0.15
     1.236201         15.24
     1.227596          3.52
     1.227420         54.30
     1.219672          2.65
     1.218863          1.42
     1.218415         43.74
     1.202130          0.01
     1.197807          5.26
     1.197360          5.18
     1.195270          0.12
     1.191807          9.18
     1.190913          0.00
     1.190810          8.22
     1.178505         12.00
     1.177634         65.23
     1.174167          3.84
     1.170534          4.29
     1.168928          0.56
     1.159130         11.37
     1.151542          1.13
     1.149960          6.55
     1.149732          0.13
     1.139019          3.05
     1.138928          8.63
     1.132996         13.65
     1.131990          0.93
     1.122245          1.52
     1.121544          1.60
     1.119738          0.10
     1.116104          0.01
     1.111202          9.55
     1.110862          2.45
     1.110437          5.12
     1.109495          3.99
     1.109226          1.25
     1.108164          0.00
     1.107563          0.35
     1.107227         13.98
     1.103365          1.55
     1.099474          4.45
     1.098691         14.42
     1.093942          0.33
     1.093040          0.73
     1.091354          2.58
     1.082376          8.31
     1.081434          0.02
     1.077762          2.29
     1.073662          2.83
     1.072504          1.33
     1.072200          0.24
     1.069696         20.38
     1.068010          5.57
     1.067173         10.62
     1.067171          0.02
     1.066588          1.69
     1.062775          1.03
     1.058540          0.00
     1.058293          1.29
     1.054926          0.03
     1.052723          4.21
     1.052506          2.46
     1.051986          0.88
     1.044192         15.21
     1.043985          0.08
     1.041460          0.32
     1.041171          2.80
     1.037513          0.00
     1.034621          5.37
     1.034133          0.07
     1.033858          0.00
     1.031614          4.20
     1.029350         11.82
     1.025937          0.16
     1.023384          0.00
     1.023376          0.20
     1.021375          6.37
     1.016985          2.13
     1.015962         10.16
     1.012143          0.01
     1.008038          0.00
##############################################################################
###                            Comments                                    ###
##############################################################################
###   Diffraction pattern calculated by Match!. 
###   I/Ic calculated by Match!. 
###   Space group has been derived from given symmetry operations. 
##############################################################################


