##############################################################################
###               Crystal structure data exported by Match!                ###
##############################################################################
###                           Data published by:                           ###
###                                                                        ###
###               COD (Crystallography Open Database)
##############################################################################
data_2020362
_citation_journal_full    'Acta Crystallographica C (39,1983-)'
_citation_journal_volume  '45'
_citation_page_first  '1412'
_citation_page_last   '1413'
_citation_year  '1989'
_citation_title  'Cobalt(II) orthophosphate octahydrate'
loop_
_publ_author_name
  'Riou A.'
  'Cudennec Y.'
  'Gerault Y.'
_chemical_formula_sum  'Co3 H16 O16 P2'
_chemical_name_common  'Co3 (P O4)2 (H2 O)8'
_symmetry_space_group_name_H-M 'C 1 2/m 1'
_space_group_IT_number 12
_space_group_crystal_system 'monoclinic'
loop_
_symmetry_equiv_pos_as_xyz
   'x, y, z'
   'x+0.5, y+0.5, z'
   '-x, y, -z'
   '-x+0.5, y+0.5, -z'
   '-x, -y, -z'
   '-x+0.5, -y+0.5, -z'
   'x, -y, z'
   'x+0.5, -y+0.5, z'
_cell_length_a       10.02100
_cell_length_b       13.33100
_cell_length_c        4.67300
_cell_angle_alpha    90.0000
_cell_angle_beta    104.9000
_cell_angle_gamma    90.0000
_cell_formula_units_Z 2
loop_
_atom_site_label
_atom_site_fract_x
_atom_site_fract_y
_atom_site_fract_z
_atom_site_occupancy
_atom_site_B_iso_or_equiv
o      0.157   0.000   0.371    1.00000    1.000
o      0.401   0.385   0.196    1.00000    1.000
h      0.380   0.411   0.319    1.00000    1.000
o      0.103   0.276   0.282    1.00000    1.000
p      0.314   0.000   0.381    1.00000    1.000
co      0.000   0.390   0.000    1.00000    1.000
o      0.394   0.000   0.709    1.00000    1.000
co      0.000   0.000   0.000    1.00000    1.000
h      0.348   0.372   0.123    1.00000    1.000
h      0.058   0.221   0.286    1.00000    1.000
h      0.116   0.299   0.382    1.00000    1.000
o      0.344   0.096   0.228    1.00000    1.000
_cell_measurement_wavelength    1.541874
_cell_measurement_radiation   'x-rays'
_exptl_crystal_density_diffrn    2.812000
loop_
_pd_peak_d_spacing
_pd_peak_intensity
     7.834979        309.13
     6.665500       1000.00
     4.842027        360.02
     4.515875        175.12
     4.320682         30.08
     4.038769        148.45
     3.917490          0.21
     3.830047        279.68
     3.738638         13.27
     3.601745         38.64
     3.332750          0.60
     3.320855         28.89
     3.184931        347.61
     3.137351         17.87
     2.946180        268.51
     2.944324        177.95
     2.861802         14.75
     2.745305         44.54
     2.694688        258.47
     2.681557        189.18
     2.611660        118.44
     2.570555         45.02
     2.514172        140.85
     2.497124         83.24
     2.421014          3.70
     2.406960        186.12
     2.319256          3.14
     2.302571        129.95
     2.300732         29.04
     2.283610         10.17
     2.275560         14.53
     2.263878         38.79
     2.257938          0.61
     2.221833          0.00
     2.207343        137.11
     2.171180        122.01
     2.160341         45.61
     2.138567         25.04
     2.098032         13.09
     2.080961         21.20
     2.067549         12.41
     2.058670         10.06
     2.055671        107.67
     2.019384          5.89
     1.998401         29.67
     1.993603         16.06
     1.958745          7.67
     1.952007         21.76
     1.951280         10.22
     1.936427         14.33
     1.921867         18.48
     1.916713         59.13
     1.916688         19.38
     1.915024         75.03
     1.886560         79.68
     1.883808          4.69
     1.870433         56.39
     1.869319          2.03
     1.868638         15.11
     1.859545         11.55
     1.840566          5.87
     1.803456         33.00
     1.800873         10.08
     1.775492         18.39
     1.773935          0.70
     1.765129         51.25
     1.757740         13.32
     1.756922         46.41
     1.697159          0.67
     1.688487          0.14
     1.674321          5.65
     1.666375         71.58
     1.661528         88.59
     1.661247          7.26
     1.660428         13.89
     1.647787          8.53
     1.641771         88.92
     1.640249          1.11
     1.636968          0.98
     1.632603          0.41
     1.631110         12.78
     1.622130          2.81
     1.614009         21.69
     1.611938          0.50
     1.610710          0.03
     1.592466          0.41
     1.589564         21.05
     1.586120         58.19
     1.583684          4.95
     1.575676         14.32
     1.568676         35.56
     1.566996         66.09
     1.563336          9.83
     1.555467          8.46
     1.555263         10.89
     1.538759          0.41
     1.533831         32.79
     1.528017         23.65
     1.514580          4.00
     1.512575          0.03
     1.509438         44.66
     1.505292         21.64
     1.486779         35.51
     1.480865          0.64
     1.476008          6.74
     1.473090         56.34
     1.472162          7.46
     1.468315         10.04
     1.464194          8.38
     1.462776         27.79
     1.459807          0.27
     1.457377          9.11
     1.452628          0.61
     1.450571          6.27
     1.450443         33.09
     1.440227          8.06
     1.438382          9.48
     1.434730         11.01
     1.430901          1.85
     1.424372          9.96
     1.423742         10.44
     1.421566          3.62
     1.418080          4.00
     1.409508         10.38
     1.409356         23.81
     1.409337          9.55
     1.408976          0.27
     1.405737          6.72
     1.393349         21.17
     1.378852          0.88
     1.377192          0.74
     1.376047          0.79
     1.374987          1.05
     1.372652          1.65
     1.371851          6.52
     1.370327          2.25
     1.370076         18.43
     1.364448          0.03
     1.363469          2.62
     1.361008          6.76
     1.357938          0.84
     1.347344          0.06
     1.346256          0.21
     1.346095          5.47
     1.342875          7.15
     1.340778          3.01
     1.339438         37.45
     1.336744          1.51
     1.335289          8.78
     1.333100         32.24
     1.330470          7.30
     1.329780         21.92
     1.322062         26.23
     1.320902         14.87
     1.316425          0.34
     1.310633          0.10
     1.306386          1.96
     1.305830          0.98
     1.298047          0.60
     1.286022          0.07
     1.285278          4.68
     1.278554          4.28
     1.276682          6.48
     1.274127          4.32
     1.269132          6.95
     1.263083          6.46
     1.261946          0.96
     1.259993         16.48
     1.259016          7.58
     1.258922          0.55
     1.257086          8.28
     1.253890          2.65
     1.253858          0.15
     1.252545          5.45
     1.251574          2.75
     1.250906          3.42
     1.248562          1.55
     1.246213          2.65
     1.245565          1.13
     1.244219          8.78
     1.241536          0.33
     1.240220          3.50
     1.231406         15.48
     1.230999          8.72
     1.227971         26.36
     1.227755          0.00
     1.219706          1.05
     1.218613          0.17
     1.215057          2.27
     1.214551         21.49
     1.210507          4.95
     1.207265          0.65
     1.203480          3.95
     1.202529          0.01
     1.201743          3.03
     1.200582          8.29
     1.199796          0.05
     1.192201          0.28
     1.191414          1.72
     1.191025          0.09
     1.190107          0.03
     1.189146          1.05
     1.184613          3.71
     1.184330          0.84
     1.177700          0.10
     1.177586          2.36
     1.176582          2.59
     1.176488          1.11
     1.176473          0.06
     1.172474          1.06
     1.171372          5.54
     1.167891         19.27
     1.167769          0.87
     1.166181         15.04
     1.159628          0.01
     1.159348          7.94
     1.158523          0.11
     1.152917          1.52
     1.152360          4.40
     1.151763          1.33
     1.151285          5.49
     1.150366          4.84
     1.149269          0.11
     1.147954          1.33
     1.144830          0.50
     1.143372          0.70
     1.141805          3.31
     1.141451         11.74
     1.137780          2.74
     1.136990          1.86
     1.135516          0.44
     1.134584          2.87
     1.131939          1.74
     1.129527         10.85
     1.128969          4.41
     1.125412          1.62
     1.125034          0.59
     1.124669          0.27
     1.121882          2.99
     1.119283          2.11
     1.118841          3.12
     1.118712         18.27
     1.117397          0.60
     1.117021          8.65
     1.113115          0.01
     1.113014          0.30
     1.110917          0.94
     1.110314          0.77
     1.109371          0.00
     1.106952          0.19
     1.105358          3.35
     1.103672         17.72
     1.103243          0.64
     1.102176          0.07
     1.100595          8.80
     1.098052          2.67
     1.097823          0.11
     1.097512          0.00
     1.097016          7.68
     1.094105          6.78
     1.091107          1.59
     1.090091          5.83
     1.089094          5.83
     1.085991          0.16
     1.085891          2.62
     1.085590          6.72
     1.082784          0.96
     1.082226          0.01
     1.080819          0.01
     1.080171          0.33
     1.079870         11.82
     1.079862          0.50
     1.078755          0.96
     1.077610          0.01
     1.076083          3.49
     1.075799          0.44
     1.075734          0.17
     1.074208          6.42
     1.072518          0.01
     1.070579          0.38
     1.069284          3.99
     1.066942          0.29
     1.065939          0.42
     1.062980          1.12
     1.062254          0.18
     1.061644          0.15
     1.060667          4.15
     1.060654          1.08
     1.060044          0.01
     1.058262          4.83
     1.058213          0.09
     1.054777          6.67
     1.052679          0.12
     1.049016          0.39
     1.047600          2.21
     1.045784          1.96
     1.045611          3.59
     1.045083          0.16
     1.043224          1.76
##############################################################################
###                            Comments                                    ###
##############################################################################
###   Diffraction pattern calculated by Match!. 
###   I/Ic calculated by Match!. 
##############################################################################


