##############################################################################
###               Crystal structure data exported by Match!                ###
##############################################################################
###                           Data published by:                           ###
###                                                                        ###
###               COD (Crystallography Open Database)
##############################################################################
data_4124073
_citation_journal_full    'Journal of the American Chemical Society'
_citation_journal_volume  '126'
_citation_page_first  '9769'
_citation_page_last   '9775'
_citation_year  '2004'
_citation_title  'Chemical evaluation of hypothetical uninodal zeolites'
loop_
_publ_author_name
  'Foster M.D.'
  'Friedrichs O.D.'
  'Bell R.G.'
  'Klinowski J.'
  'Paz F.A.A.'
_chemical_formula_sum  'O2 Si'
_chemical_name_common  'Silica'
_symmetry_space_group_name_H-M 'R -3 m'
_space_group_IT_number 166
_space_group_crystal_system 'trigonal (hexagonal axes)'
loop_
_symmetry_equiv_pos_as_xyz
   'x, y, z'
   'x+0.66667, y+0.33333, z+0.33333'
   'x+0.33333, y+0.66667, z+0.66667'
   '-y, x-y, z'
   '-y+0.66667, x-y+0.33333, z+0.33333'
   '-y+0.33333, x-y+0.66667, z+0.66667'
   '-x+y, -x, z'
   '-x+y+0.66667, -x+0.33333, z+0.33333'
   '-x+y+0.33333, -x+0.66667, z+0.66667'
   'x-y, -y, -z'
   'x-y+0.66667, -y+0.33333, -z+0.33333'
   'x-y+0.33333, -y+0.66667, -z+0.66667'
   '-x, -x+y, -z'
   '-x+0.66667, -x+y+0.33333, -z+0.33333'
   '-x+0.33333, -x+y+0.66667, -z+0.66667'
   'y, x, -z'
   'y+0.66667, x+0.33333, -z+0.33333'
   'y+0.33333, x+0.66667, -z+0.66667'
   '-x, -y, -z'
   '-x+0.66667, -y+0.33333, -z+0.33333'
   '-x+0.33333, -y+0.66667, -z+0.66667'
   'y, -x+y, -z'
   'y+0.66667, -x+y+0.33333, -z+0.33333'
   'y+0.33333, -x+y+0.66667, -z+0.66667'
   'x-y, x, -z'
   'x-y+0.66667, x+0.33333, -z+0.33333'
   'x-y+0.33333, x+0.66667, -z+0.66667'
   '-x+y, y, z'
   '-x+y+0.66667, y+0.33333, z+0.33333'
   '-x+y+0.33333, y+0.66667, z+0.66667'
   'x, x-y, z'
   'x+0.66667, x-y+0.33333, z+0.33333'
   'x+0.33333, x-y+0.66667, z+0.66667'
   '-y, -x, z'
   '-y+0.66667, -x+0.33333, z+0.33333'
   '-y+0.33333, -x+0.66667, z+0.66667'
_cell_length_a       14.14102
_cell_length_b       14.14102
_cell_length_c        4.95407
_cell_angle_alpha    90.0000
_cell_angle_beta     90.0000
_cell_angle_gamma   120.0000
_cell_formula_units_Z 18
loop_
_atom_site_label
_atom_site_fract_x
_atom_site_fract_y
_atom_site_fract_z
_atom_site_occupancy
_atom_site_B_iso_or_equiv
o      0.667   0.512   0.333    1.00000    1.000
o      0.500   0.000   0.000    1.00000    1.000
si      0.793   0.587   0.400    1.00000    1.000
o      0.500   0.000   0.500    1.00000    1.000
_cell_measurement_wavelength    1.541874
_cell_measurement_radiation   'x-rays'
_exptl_crystal_density_diffrn    2.093000
loop_
_pd_peak_d_spacing
_pd_peak_intensity
     7.070510        481.88
     4.592530       1000.00
     4.082161        986.91
     3.851399          8.65
     3.535255        414.16
     3.382180        817.47
     2.801379          0.06
     2.672402          0.13
     2.604408         11.22
     2.443887        202.13
     2.427869         95.70
     2.356837         35.20
     2.296265         10.86
     2.195613         18.18
     2.183976         28.64
     2.096840         29.19
     2.041080         94.25
     2.010301         19.14
     2.001358         84.85
     1.961007         72.15
     1.925699         17.66
     1.865169         39.58
     1.858020         11.23
     1.767627          0.22
     1.747523          4.87
     1.741638         28.53
     1.691090         76.91
     1.651357         16.04
     1.649654         50.19
     1.644702         20.57
     1.622086         10.00
     1.608080          0.00
     1.606508         58.55
     1.562336          1.79
     1.542912         42.25
     1.530843         74.11
     1.496177          1.38
     1.494910          0.89
     1.491222          0.17
     1.462577         29.60
     1.432256         13.47
     1.429011        136.43
     1.414102         40.66
     1.404793         22.69
     1.400690         31.93
     1.376872          4.95
     1.360720          0.66
     1.352420          0.44
     1.351485         13.96
     1.336201          1.07
     1.327453          2.61
     1.324868          0.62
     1.302204         29.30
     1.283800         26.15
     1.280665          8.01
     1.269901          0.26
     1.263147         28.04
     1.242732         58.26
     1.240611          1.24
     1.232232          0.13
     1.221943         32.03
     1.213935         27.96
     1.206698          3.72
     1.206033         32.98
     1.204094         35.15
     1.196429         23.44
     1.188862          4.73
     1.178418         18.90
     1.172405          0.85
     1.163576          0.17
     1.162385          1.90
     1.157198          1.74
     1.148132          5.99
     1.141441          2.89
     1.139796         24.14
     1.133288          3.83
     1.132188          1.10
     1.127393         12.82
     1.126851          5.98
     1.111283          0.01
     1.105249          5.39
     1.097806         11.98
     1.091988          4.95
     1.086226          1.19
     1.084808         14.76
     1.079193         11.97
     1.078243         14.40
     1.074099          7.38
     1.073630          6.23
     1.061463          6.63
     1.060140          2.96
     1.054897         11.65
     1.050138          0.92
     1.048420          0.91
     1.038743         29.23
     1.038319          1.14
     1.032171          0.27
     1.020540          1.42
     1.016627         10.69
     1.015464          4.88
     1.010854          9.14
     1.010073         12.77
     1.006664          4.52
##############################################################################
###                            Comments                                    ###
##############################################################################
###   Diffraction pattern calculated by Match!. 
###   I/Ic calculated by Match!. 
##############################################################################


