##############################################################################
###               Crystal structure data exported by Match!                ###
##############################################################################
###                           Data published by:                           ###
###                                                                        ###
###               COD (Crystallography Open Database)
##############################################################################
data_4124079
_citation_journal_full    'Journal of the American Chemical Society'
_citation_journal_volume  '126'
_citation_page_first  '9769'
_citation_page_last   '9775'
_citation_year  '2004'
_citation_title  'Chemical evaluation of hypothetical uninodal zeolites'
loop_
_publ_author_name
  'Foster M.D.'
  'Friedrichs O.D.'
  'Klinowski J.'
  'Bell R.G.'
  'Paz F.A.A.'
_chemical_formula_sum  'O2 Si'
_chemical_name_common  'Silica'
_symmetry_space_group_name_H-M 'P 1 2/c 1'
_space_group_IT_number 13
_space_group_crystal_system 'monoclinic'
loop_
_symmetry_equiv_pos_as_xyz
   'x, y, z'
   '-x, y, -z+0.5'
   '-x, -y, -z'
   'x, -y, z+0.5'
_cell_length_a        8.26786
_cell_length_b        4.43541
_cell_length_c        9.03988
_cell_angle_alpha    90.0000
_cell_angle_beta    150.9807
_cell_angle_gamma    90.0000
_cell_formula_units_Z 4
loop_
_atom_site_label
_atom_site_fract_x
_atom_site_fract_y
_atom_site_fract_z
_atom_site_occupancy
_atom_site_B_iso_or_equiv
o      0.500   0.697   0.250    1.00000    1.000
o      0.000   0.500   0.500    1.00000    1.000
o      0.500   0.000   0.000    1.00000    1.000
o      0.000   0.000   0.500    1.00000    1.000
si      0.726   0.780   0.291    1.00000    1.000
_cell_measurement_wavelength    1.541874
_cell_measurement_radiation   'x-rays'
_exptl_crystal_density_diffrn    2.481000
loop_
_pd_peak_d_spacing
_pd_peak_intensity
     4.435410        114.30
     4.119849       1000.00
     4.010774         13.13
     3.905517        479.70
     3.745189        695.48
     3.118435        828.79
     3.018573        136.91
     2.974872         24.99
     2.861522         32.08
     2.559740         90.91
     2.419184          7.77
     2.419122          9.02
     2.335112         94.82
     2.245880         96.33
     2.217705          8.60
     2.192642          8.55
     2.141495          0.09
     2.123817         44.50
     2.059924         76.36
     2.005387          1.17
     2.003659          0.01
     1.979031          4.78
     1.965581          4.55
     1.952759         17.93
     1.944657          2.72
     1.940777         45.47
     1.908245         29.92
     1.880808        113.43
     1.872595         35.33
     1.868269          2.77
     1.827295          0.00
     1.810379         21.02
     1.767106         15.23
     1.758527          9.35
     1.725451         20.22
     1.725146          1.24
     1.674226          0.48
     1.657469         11.39
     1.634750         43.10
     1.586292         27.24
     1.578021         13.74
     1.567194          0.07
     1.559218        157.66
     1.548711          1.82
     1.545276         28.60
     1.544763         62.16
     1.515874          1.14
     1.509286         16.34
     1.502356         33.99
     1.493641          5.36
     1.487436         88.10
     1.478470          0.30
     1.477665          2.23
     1.460147          0.23
     1.455229          8.73
     1.454426          0.22
     1.443099         20.48
     1.430761         19.99
     1.422944          0.97
     1.419298         16.14
     1.401310          2.41
     1.400990         31.16
     1.391576          3.91
     1.391440          5.13
     1.388310         28.84
     1.387221          3.68
     1.386927          4.53
     1.375193          4.61
     1.373283          1.88
     1.372292          5.26
     1.351776          3.27
     1.347957         18.49
     1.337177         10.48
     1.336925          2.94
     1.323052          7.22
     1.322730          1.12
     1.315870          2.20
     1.311843          0.52
     1.311466         38.95
     1.301839         12.34
     1.290208         43.00
     1.285503          1.29
     1.284913         15.77
     1.280040          0.09
     1.279870         36.37
     1.261533          4.15
     1.248396          2.76
     1.243818          9.29
     1.234907         18.81
     1.230478         25.97
     1.225833          5.49
     1.220708          0.01
     1.220486          0.42
     1.219546          2.92
     1.219234         11.10
     1.209592         14.42
     1.209561          1.39
     1.204433         12.27
     1.201704          3.92
     1.201121          3.42
     1.195465         13.31
     1.195442         29.20
     1.192798          4.83
     1.190020         15.29
     1.172912          1.27
     1.167556         39.45
     1.167291          1.12
     1.166975          0.76
     1.161084          0.09
     1.160394          4.29
     1.148870          0.22
     1.148449          0.17
     1.144966          0.05
     1.144515          0.45
     1.141267         15.19
     1.139119          3.25
     1.137717          0.08
     1.123236          1.99
     1.122940         24.62
     1.114086          0.00
     1.111609          4.57
     1.109085          0.73
     1.108853         13.74
     1.105265          0.09
     1.100830          0.10
     1.100675          7.62
     1.100489         10.55
     1.098946          0.11
     1.096321         12.07
     1.088593          1.43
     1.087875         11.00
     1.083240          0.21
     1.081855         12.91
     1.081547          0.42
     1.080521          0.23
     1.075435          0.95
     1.075018          3.18
     1.070747         14.05
     1.068759          0.02
     1.066425          2.01
     1.064291          0.68
     1.063230          6.15
     1.061909          0.09
     1.053780          2.39
     1.051351          0.61
     1.051041          2.46
     1.045365          7.45
     1.044948         16.66
     1.044472          3.28
     1.039720          0.58
     1.039478          6.11
     1.038898          0.33
     1.038384          0.06
     1.035090          3.20
     1.032704          0.89
     1.029962          0.33
     1.028634          3.06
     1.028218          8.42
     1.023875          0.29
     1.023005          0.41
     1.022212          6.41
     1.020291          0.00
     1.019682          1.84
     1.016963          1.02
     1.014778          8.36
     1.011047          0.45
     1.008009          1.52
##############################################################################
###                            Comments                                    ###
##############################################################################
###   Diffraction pattern calculated by Match!. 
###   I/Ic calculated by Match!. 
###   Space group has been derived from given symmetry operations. 
##############################################################################


