##############################################################################
###               Crystal structure data exported by Match!                ###
##############################################################################
###                           Data published by:                           ###
###                                                                        ###
###               COD (Crystallography Open Database)
##############################################################################
data_9000139
_citation_journal_full    'American Mineralogist'
_citation_journal_volume  '51'
_citation_page_first  '123'
_citation_page_last   '129'
_citation_year  '1966'
_citation_title  'Refinement of the hematite structure'
loop_
_publ_author_name
  'Blake R. L.'
  'Hessevick R. E.'
  'Zoltai T.'
  'Finger L. W.'
_chemical_formula_sum  'Fe2 O3'
_chemical_name_mineral  'Hematite'
_symmetry_space_group_name_H-M 'R -3 c'
_space_group_IT_number 167
_space_group_crystal_system 'trigonal (hexagonal axes)'
loop_
_symmetry_equiv_pos_as_xyz
   'x, y, z'
   'x+0.66667, y+0.33333, z+0.33333'
   'x+0.33333, y+0.66667, z+0.66667'
   '-y, x-y, z'
   '-y+0.66667, x-y+0.33333, z+0.33333'
   '-y+0.33333, x-y+0.66667, z+0.66667'
   '-x+y, -x, z'
   '-x+y+0.66667, -x+0.33333, z+0.33333'
   '-x+y+0.33333, -x+0.66667, z+0.66667'
   'x-y, -y, -z+0.5'
   'x-y+0.66667, -y+0.33333, -z+0.83333'
   'x-y+0.33333, -y+0.66667, -z+0.16667'
   '-x, -x+y, -z+0.5'
   '-x+0.66667, -x+y+0.33333, -z+0.83333'
   '-x+0.33333, -x+y+0.66667, -z+0.16667'
   'y, x, -z+0.5'
   'y+0.66667, x+0.33333, -z+0.83333'
   'y+0.33333, x+0.66667, -z+0.16667'
   '-x, -y, -z'
   '-x+0.66667, -y+0.33333, -z+0.33333'
   '-x+0.33333, -y+0.66667, -z+0.66667'
   'y, -x+y, -z'
   'y+0.66667, -x+y+0.33333, -z+0.33333'
   'y+0.33333, -x+y+0.66667, -z+0.66667'
   'x-y, x, -z'
   'x-y+0.66667, x+0.33333, -z+0.33333'
   'x-y+0.33333, x+0.66667, -z+0.66667'
   '-x+y, y, z+0.5'
   '-x+y+0.66667, y+0.33333, z+0.83333'
   '-x+y+0.33333, y+0.66667, z+0.16667'
   'x, x-y, z+0.5'
   'x+0.66667, x-y+0.33333, z+0.83333'
   'x+0.33333, x-y+0.66667, z+0.16667'
   '-y, -x, z+0.5'
   '-y+0.66667, -x+0.33333, z+0.83333'
   '-y+0.33333, -x+0.66667, z+0.16667'
_cell_length_a        5.03800
_cell_length_b        5.03800
_cell_length_c       13.77200
_cell_angle_alpha    90.0000
_cell_angle_beta     90.0000
_cell_angle_gamma   120.0000
loop_
_atom_site_label
_atom_site_fract_x
_atom_site_fract_y
_atom_site_fract_z
_atom_site_occupancy
_atom_site_B_iso_or_equiv
fe      0.000   0.000   0.355    1.00000    0.479
o      0.306   0.000   0.250    1.00000    0.499
_cell_measurement_wavelength    1.541874
_cell_measurement_radiation   'x-rays'
_exptl_crystal_density_diffrn    5.256000
loop_
_pd_peak_d_spacing
_pd_peak_intensity
     3.685516        287.30
     2.702804       1000.00
     2.519000        736.87
     2.295333         20.54
     2.208379        179.59
     2.079651         19.45
     1.842758        374.25
     1.696620        451.03
     1.637376          4.90
     1.603726         23.40
     1.601356         85.20
     1.487278        306.50
     1.454345        294.52
     1.414876          2.45
     1.351402         30.43
     1.313326        108.59
     1.307824         17.23
     1.263831          1.42
     1.259500         69.63
     1.228505         25.36
     1.214615          9.93
     1.205444          0.54
     1.191826         15.73
     1.190852         42.33
     1.164552         56.37
     1.147667          1.19
     1.141630         86.59
     1.107886          0.38
     1.104189         79.33
     1.077327          8.03
     1.057057         88.34
     1.044380          5.50
     1.039825         27.64
     1.030731          0.30
##############################################################################
###                            Comments                                    ###
##############################################################################
###   Diffraction pattern calculated by Match!. 
###   I/Ic calculated by Match!. 
##############################################################################


