##############################################################################
###               Crystal structure data exported by Match!                ###
##############################################################################
###                           Data published by:                           ###
###                                                                        ###
###               COD (Crystallography Open Database)
##############################################################################
data_9000054
_citation_journal_full    'American Mineralogist'
_citation_journal_volume  '38'
_citation_page_first  '489'
_citation_page_last   '500'
_citation_year  '1953'
_citation_title  'The structure of pucherite, BiVO4'
loop_
_publ_author_name
  'Qurashi M. M.'
  'Barnes W. H.'
_chemical_formula_sum  'Bi O4 V'
_chemical_name_mineral  'Pucherite'
_symmetry_space_group_name_H-M 'P n c a'
_space_group_IT_number 60
_space_group_crystal_system 'orthorhombic'
loop_
_symmetry_equiv_pos_as_xyz
   'x, y, z'
   '-x+0.5, -y, z'
   'x+0.5, -y+0.5, -z+0.5'
   '-x, y+0.5, -z+0.5'
   '-x, -y, -z'
   'x+0.5, y, -z'
   '-x+0.5, y+0.5, z+0.5'
   'x, -y+0.5, z+0.5'
_cell_length_a        5.33200
_cell_length_b        5.06000
_cell_length_c       12.02000
_cell_angle_alpha    90.0000
_cell_angle_beta     90.0000
_cell_angle_gamma    90.0000
loop_
_atom_site_label
_atom_site_fract_x
_atom_site_fract_y
_atom_site_fract_z
_atom_site_occupancy
_atom_site_B_iso_or_equiv
bi      0.250   0.000   0.110    1.00000    1.299
v      0.250   0.000   0.394    1.00000    1.299
o      -0.052   -0.229   0.032    1.00000    1.299
o      -0.030   0.350   0.196    1.00000    1.299
_cell_measurement_wavelength    1.541874
_cell_measurement_radiation   'x-rays'
_exptl_crystal_density_diffrn    6.634000
loop_
_pd_peak_d_spacing
_pd_peak_intensity
     6.010000        108.20
     4.663621        473.80
     3.988553        500.73
     3.510345       1000.00
     3.141159         40.98
     3.132408          0.66
     3.005000        250.85
     2.706432        897.68
     2.666000        168.19
     2.617877         22.65
     2.530000        167.83
     2.436990         16.94
     2.358646          0.60
     2.331811          5.21
     2.325126         24.70
     2.314507        170.05
     2.245501          8.83
     2.195614          5.88
     2.171396        125.06
     2.136444        224.13
     2.032602         67.13
     2.011032         38.16
     2.003333         25.12
     1.994277        230.19
     1.985386          0.74
     1.935392        207.39
     1.875336         64.46
     1.855374          0.61
     1.835176        213.29
     1.819254         18.88
     1.814154          0.31
     1.758451          0.10
     1.755173         18.44
     1.704367         62.79
     1.683621         74.51
     1.670303         27.94
     1.668485          0.08
     1.660811         86.41
     1.656493          0.01
     1.626063          2.26
     1.615201          0.12
     1.601561         42.42
     1.593925         77.58
     1.570579         36.48
     1.566204        140.28
     1.555345        181.54
     1.554540         17.17
     1.553476          0.54
     1.546880        149.09
     1.529785          4.70
     1.526902          0.01
     1.506580         43.70
     1.502500         14.58
     1.492406        127.76
     1.464326          1.60
     1.458716          0.26
     1.446180         14.23
     1.443806          0.82
     1.425363          0.29
     1.417864          0.13
     1.415446         31.43
     1.413538         45.06
     1.390503          1.71
     1.388221          0.46
     1.386892          0.20
     1.380727         17.09
     1.375351          8.21
     1.372896          0.88
     1.367064          0.11
     1.353216         29.38
     1.342916          5.29
     1.336640          7.38
     1.333000         29.93
     1.329518          9.77
     1.309082          3.48
     1.308939         28.12
     1.301374          1.29
     1.291862         23.21
     1.291332         18.81
     1.289021          0.06
     1.287832          0.13
     1.285872          0.01
     1.281672         20.83
     1.267226          0.05
     1.265000         20.63
     1.260358          1.13
     1.255536         13.34
     1.255049          1.27
     1.254067          0.74
     1.253856          0.03
     1.244349          0.00
     1.237876          3.96
     1.227081          6.04
     1.226055         33.96
     1.224432          0.23
     1.218495         28.07
     1.217162         31.49
     1.205807         28.38
     1.203284          0.05
     1.202000         13.14
     1.199721         67.11
     1.198862          0.07
     1.184631          0.15
     1.179323         28.64
     1.176909         25.70
     1.176570          0.00
     1.173766         60.57
     1.173687          0.10
     1.172575          4.64
     1.170115         43.23
     1.165905         23.22
     1.162563         26.65
     1.162176         26.52
     1.161396          0.03
     1.157253          2.19
     1.153140          0.20
     1.147433          4.25
     1.142870         28.03
     1.142304          0.46
     1.138994          2.33
     1.137739          0.05
     1.136017         23.88
     1.133135          0.00
     1.131333          0.05
     1.122750          0.49
     1.119022          0.24
     1.109784          0.19
     1.109776          6.95
     1.099034          0.00
     1.097872          0.19
     1.097807         42.53
     1.096748          1.15
     1.095776         14.97
     1.095585          0.03
     1.090368          4.55
     1.085698         16.62
     1.084010          0.00
     1.079865          0.00
     1.070951          0.08
     1.069607          7.15
     1.068222         39.80
     1.068105          0.26
     1.063868          8.36
     1.058783          0.17
     1.049999          7.26
     1.048714         14.38
     1.047299         37.93
     1.047053          9.82
     1.045820          0.17
     1.044983         10.70
     1.044703          0.25
     1.044136          0.13
     1.041884         11.45
     1.039568         18.23
     1.034079          0.00
     1.032167          0.04
     1.030881          0.62
     1.030337          0.11
     1.028097          0.03
     1.027430          0.31
     1.026844          0.07
     1.016301         12.92
     1.015785         16.97
     1.011916          5.65
     1.009794         28.09
     1.008432          6.05
##############################################################################
###                            Comments                                    ###
##############################################################################
###   Diffraction pattern calculated by Match!. 
###   I/Ic calculated by Match!. 
###   Space group has been derived from given symmetry operations. 
##############################################################################


