##############################################################################
###               Crystal structure data exported by Match!                ###
##############################################################################
###                           Data published by:                           ###
###                                                                        ###
###               COD (Crystallography Open Database)
##############################################################################
data_9013724
_citation_journal_full    'American Mineralogist'
_citation_journal_volume  '95'
_citation_page_first  '348'
_citation_page_last   '361'
_citation_year  '2010'
_citation_title  'Factors responsible for crystal-chemical variations in the solid solutionsfrom illite to aluminoceladonite and from glauconite to celadoniteLocality: Twin Creek formation, WyomingSample Name: 602-1'
loop_
_publ_author_name
  'Drits V. A.'
  'Zviagina B. B.'
  'McCarty D. K.'
  'Salyn A. L.'
_chemical_formula_sum  'Al2 H2 K O12 Si4'
_chemical_name_mineral  'Aluminoceladonite'
_symmetry_space_group_name_H-M 'C 1 2/m 1'
_space_group_IT_number 12
_space_group_crystal_system 'monoclinic'
loop_
_symmetry_equiv_pos_as_xyz
   'x, y, z'
   'x+0.5, y+0.5, z'
   '-x, y, -z'
   '-x+0.5, y+0.5, -z'
   '-x, -y, -z'
   '-x+0.5, -y+0.5, -z'
   'x, -y, z'
   'x+0.5, -y+0.5, z'
_cell_length_a        5.21410
_cell_length_b        9.00820
_cell_length_c       10.10800
_cell_angle_alpha    90.0000
_cell_angle_beta    101.1200
_cell_angle_gamma    90.0000
loop_
_atom_site_label
_atom_site_fract_x
_atom_site_fract_y
_atom_site_fract_z
_atom_site_occupancy
_atom_site_B_iso_or_equiv
k      0.000   0.500   0.500    1.00000    1.000
al      0.500   0.167   0.000    1.00000    1.000
si      0.418   0.329   0.272    1.00000    1.000
o      0.354   0.317   0.109    1.00000    1.000
o      0.478   0.500   0.321    1.00000    1.000
o      0.678   0.235   0.337    1.00000    1.000
o      0.420   0.000   0.106    1.00000    1.000
_cell_measurement_wavelength    1.541874
_cell_measurement_radiation   'x-rays'
_exptl_crystal_density_diffrn    2.847000
loop_
_pd_peak_d_spacing
_pd_peak_intensity
     9.918226        286.00
     4.959113        180.22
     4.504100        501.79
     4.448763          0.03
     4.340005        329.23
     4.101033        190.28
     3.826566         40.13
     3.627714       1000.00
     3.334164        331.04
     3.306075        310.10
     3.065810        833.61
     2.896272        249.98
     2.665169        351.78
     2.601339        127.47
     2.589662        288.89
     2.567679        462.13
     2.558104        231.48
     2.479557         32.32
     2.476352         42.84
     2.463163         39.20
     2.447927         92.80
     2.393387        208.85
     2.369011        150.32
     2.339094         33.53
     2.252632         58.02
     2.252050         51.19
     2.243397         13.78
     2.224381         86.79
     2.208750         17.22
     2.196148         98.61
     2.170003         51.04
     2.142757        206.93
     2.113440        105.79
     2.096682         85.49
     2.050517          2.93
     2.026177          0.07
     2.008096         39.84
     1.983645        180.98
     1.981650         53.34
     1.948436        117.07
     1.936521         14.10
     1.913283          9.76
     1.885264         11.43
     1.861253          0.69
     1.857230          0.36
     1.815387          2.42
     1.813857         44.68
     1.738307         44.43
     1.716991          0.75
     1.709545         40.65
     1.708282          1.85
     1.706186         29.56
     1.702641          0.96
     1.699354          1.54
     1.693097         29.37
     1.690343          0.01
     1.687398         12.88
     1.675639         16.15
     1.667082         36.56
     1.666107          2.76
     1.657368         26.95
     1.654658        205.95
     1.653038          5.05
     1.642042          8.61
     1.640131         78.19
     1.632222         47.67
     1.630223        105.02
     1.623857         69.18
     1.621721          2.57
     1.603080          4.23
     1.589372         78.32
     1.576908         85.73
     1.552358         12.22
     1.551827          2.84
     1.541101         32.00
     1.532905         10.15
     1.529337         60.52
     1.529284         23.82
     1.505404         93.34
     1.503969        224.04
     1.503417         56.80
     1.501367        113.80
     1.491053          7.28
     1.488546         31.13
     1.487702          2.08
     1.484455         15.34
     1.482921         15.51
     1.473493          3.92
     1.471071         27.88
     1.459482         14.07
     1.448136          1.16
     1.446668          0.80
     1.445595         12.01
     1.438933          5.88
     1.436957          0.00
     1.432840          4.18
     1.431920          0.10
     1.420722         11.93
     1.419516          2.85
     1.416889          9.48
     1.392036          1.20
     1.378593          4.71
     1.376062         11.05
     1.370684         73.04
     1.367011          0.53
     1.361661          2.20
     1.359554          0.01
     1.355185         64.35
     1.351591         17.01
     1.335493        108.36
     1.333433          4.78
     1.332585         20.17
     1.320545          5.04
     1.307118          0.03
     1.300769         28.78
     1.300669         41.62
     1.300334         62.92
     1.297718         67.17
     1.297482          9.71
     1.296563         31.92
     1.294831         78.26
     1.289008          2.92
     1.284286         41.12
     1.283840          0.21
     1.280376          8.42
     1.280345          0.86
     1.279052          0.05
     1.278767         14.16
     1.275522         37.42
     1.268143         43.41
     1.265186          0.00
     1.251535          3.96
     1.250710         21.21
     1.249698          0.15
     1.249696         11.67
     1.249610         22.77
     1.248012          0.64
     1.247730         26.06
     1.245527          0.68
     1.243253          7.43
     1.239778         19.22
     1.238606         14.33
     1.238527          5.36
     1.238176          0.07
     1.231581         22.33
     1.231094          3.33
     1.230403         12.05
     1.230149         18.41
     1.224773          4.28
     1.223980         22.28
     1.223963          0.05
     1.217171         31.92
     1.212553          8.44
     1.211088          0.91
     1.209238         17.36
     1.208348          1.17
     1.199834          0.29
     1.199275         23.95
     1.197133         19.39
     1.197020         22.18
     1.196694          0.29
     1.195323          1.65
     1.194856          8.56
     1.194272         22.94
     1.193887          2.92
     1.187946          9.69
     1.186175         15.42
     1.184506          1.37
     1.183979          2.16
     1.175785          8.50
     1.174994          3.10
     1.169547          3.98
     1.167577          2.85
     1.163906         20.15
     1.163344          7.54
     1.161161          3.78
     1.149854          1.25
     1.149085          2.18
     1.148702         22.79
     1.145621          2.74
     1.145554          2.58
     1.145077         11.70
     1.136449          0.06
     1.136236          7.55
     1.126381          9.75
     1.126316          0.08
     1.126025          0.66
     1.124244          9.38
     1.123646          1.33
     1.122800          0.39
     1.122275          2.66
     1.121699         30.62
     1.118838         10.28
     1.114193          1.59
     1.113422          1.04
     1.113061          0.56
     1.112191          1.35
     1.112004         11.50
     1.111388          1.91
     1.109868          0.04
     1.104375         53.72
     1.102366          2.15
     1.102025          0.70
     1.101421         25.27
     1.098074          2.75
     1.094288          1.50
     1.091480          2.02
     1.088980          2.21
     1.088453          0.04
     1.086079          1.41
     1.085291          3.08
     1.085001          0.00
     1.079475          2.46
     1.078991          4.18
     1.078001          7.94
     1.071379         39.66
     1.070450          1.40
     1.066635          0.20
     1.065897          0.82
     1.065371          1.97
     1.060778          2.01
     1.056720         16.81
     1.056132          0.05
     1.055496          2.00
     1.051694         29.42
     1.050724          0.03
     1.048341          0.91
     1.047975          0.00
     1.040932         10.02
     1.039731         14.25
     1.038850          0.24
     1.035806          0.46
     1.034625          0.79
     1.034159          0.21
     1.033585          1.87
     1.033368          2.88
     1.031657          0.00
     1.030599          0.03
     1.030463         16.16
     1.030133          0.33
     1.029931          0.23
     1.028785          0.61
     1.028755          2.77
     1.028243          0.34
     1.027239          3.28
     1.025258          3.01
     1.025031          1.13
     1.023546          4.89
     1.021937         11.05
     1.019351          1.04
     1.016989         15.35
     1.016703          5.49
     1.014956          3.06
     1.013090          0.05
     1.013088          7.98
     1.011169         14.55
     1.009823          2.60
##############################################################################
###                            Comments                                    ###
##############################################################################
###   Diffraction pattern calculated by Match!. 
###   I/Ic calculated by Match!. 
###   Space group has been derived from given symmetry operations. 
##############################################################################


