##############################################################################
###               Crystal structure data exported by Match!                ###
##############################################################################
###                           Data published by:                           ###
###                                                                        ###
###               COD (Crystallography Open Database)
##############################################################################
data_9012699
_citation_journal_full    'Journal of Solid State Chemistry'
_citation_journal_volume  '57'
_citation_page_first  '343'
_citation_page_last   '350'
_citation_year  '1985'
_citation_title  'Monoxyde quadratique PbO alpha(I): Description de la transition structuraleferroelastique Method: X-ray Diffraction T = 182 K Locality: synthetic'
loop_
_publ_author_name
  'Boher P.'
  'Garnier P.'
  'Gavarri J. R.'
  'Hewat A. W.'
_chemical_formula_sum  'O Pb'
_chemical_name_mineral  'Litharge'
_symmetry_space_group_name_H-M 'P 4/n m m'
_space_group_IT_number 129
_space_group_crystal_system 'tetragonal'
loop_
_symmetry_equiv_pos_as_xyz
   'x, y, z'
   '-x+0.5, -y+0.5, -z'
   '-y+0.5, x+0.5, z'
   '-x, -y, z'
   'y+0.5, -x+0.5, z'
   'y, -x, -z'
   '-y, x, -z'
   'x+0.5, -y+0.5, -z'
   '-x+0.5, y+0.5, -z'
   'y, x, -z'
   '-y, -x, -z'
   'x+0.5, y+0.5, -z'
   '-x, y, z'
   'x, -y, z'
   '-y+0.5, -x+0.5, z'
   'y+0.5, x+0.5, z'
_cell_length_a        3.96340
_cell_length_b        3.96340
_cell_length_c        5.00880
_cell_angle_alpha    90.0000
_cell_angle_beta     90.0000
_cell_angle_gamma    90.0000
loop_
_atom_site_label
_atom_site_fract_x
_atom_site_fract_y
_atom_site_fract_z
_atom_site_occupancy
_atom_site_B_iso_or_equiv
pb      0.000   0.500   0.236    1.00000    0.600
o      0.000   0.000   0.000    1.00000    0.900
_cell_measurement_wavelength    1.541874
_cell_measurement_radiation   'x-rays'
_cell_measurement_temperature    182.000000
_exptl_crystal_density_diffrn    9.421000
loop_
_pd_peak_d_spacing
_pd_peak_intensity
     5.008800         25.58
     3.108061       1000.00
     2.802547        321.46
     2.504400        114.83
     2.445735          0.02
     2.117153          9.90
     1.981700        160.22
     1.867422        256.93
     1.842717          5.25
     1.670947        317.42
     1.669600          1.42
     1.554030        106.36
     1.538651        112.60
     1.446791          5.60
     1.434356          9.12
     1.401273         48.33
     1.349459          1.50
     1.277444         62.02
     1.276842          2.51
     1.253337         52.56
     1.252200         14.43
     1.222867         47.00
     1.215851          0.12
     1.215331         98.77
     1.194024          5.60
     1.168512          1.35
     1.143270         34.75
     1.120815         87.87
     1.073697         73.03
     1.073339          1.57
     1.058576         34.78
     1.036020         31.87
     1.022726          7.47
     1.006557          1.88
##############################################################################
###                            Comments                                    ###
##############################################################################
###   Diffraction pattern calculated by Match!. 
###   I/Ic calculated by Match!. 
###   Space group has been derived from given symmetry operations. 
##############################################################################


