##############################################################################
###               Crystal structure data exported by Match!                ###
##############################################################################
###                           Data published by:                           ###
###                                                                        ###
###               COD (Crystallography Open Database)
##############################################################################
data_9014049
_citation_journal_full    'Physics and Chemistry of Minerals'
_citation_journal_volume  '39'
_citation_page_first  '399'
_citation_page_last   '412'
_citation_year  '2012'
_citation_title  'Crystal-structure properties and the molecular nature ofhydrostatically compressed realgarNote: P = 3.97 GPa'
loop_
_publ_author_name
  'Hejny C.'
  'Sagl R.'
  'Tobbens D. M.'
  'Miletich R.'
  'Wildner M.'
  'Nasdala L.'
  'Ullrich A.'
  'Balic-Zunic T'
_chemical_formula_sum  'As S'
_chemical_name_mineral  'Realgar'
_symmetry_space_group_name_H-M 'P 1 21/n 1'
_space_group_IT_number 14
_space_group_crystal_system 'monoclinic'
loop_
_symmetry_equiv_pos_as_xyz
   'x, y, z'
   '-x+0.5, y+0.5, -z+0.5'
   '-x, -y, -z'
   'x+0.5, -y+0.5, z+0.5'
_cell_length_a        8.82700
_cell_length_b       12.68300
_cell_length_c        6.21300
_cell_angle_alpha    90.0000
_cell_angle_beta    106.9500
_cell_angle_gamma    90.0000
loop_
_atom_site_label
_atom_site_fract_x
_atom_site_fract_y
_atom_site_fract_z
_atom_site_occupancy
_atom_site_B_iso_or_equiv
as      0.107   -0.029   0.756    1.00000    1.468
as      0.434   0.136   0.854    1.00000    1.523
as      0.328   0.128   0.192    1.00000    1.334
as      0.029   0.164   0.699    1.00000    1.563
s      0.341   -0.017   0.685    1.00000    1.500
s      0.210   -0.031   0.126    1.00000    1.421
s      0.239   0.231   0.621    1.00000    1.500
s      0.107   0.221   0.059    1.00000    1.737
_cell_measurement_wavelength    1.541874
_cell_measurement_radiation   'x-rays'
_exptl_crystal_density_diffrn    4.272000
loop_
_pd_peak_d_spacing
_pd_peak_intensity
     7.028471        116.73
     6.341500         52.32
     5.705513        533.84
     5.381571        414.29
     5.203262        286.21
     5.070651       1000.00
     4.336416         70.45
     4.304984          0.07
     4.241485         18.77
     4.221775         27.20
     4.076550          5.97
     4.005686        115.80
     3.851970        295.72
     3.780284         78.36
     3.561794         66.16
     3.514236         76.30
     3.444960         52.72
     3.409061        168.52
     3.396784          0.19
     3.170750         12.91
     3.016376         59.57
     3.011652         25.49
     2.987327        645.36
     2.971552        700.09
     2.968355        444.35
     2.963386         67.70
     2.921914          7.55
     2.893204        128.58
     2.890457        608.66
     2.852756          0.00
     2.818197        100.35
     2.797507        387.30
     2.785278        443.01
     2.783220        278.54
     2.771524          0.96
     2.747675         49.63
     2.746966        846.46
     2.690786        164.71
     2.630131        217.19
     2.601631         20.59
     2.572529        146.21
     2.553011        673.79
     2.535326        159.12
     2.525939        246.68
     2.500108          5.23
     2.494971        161.14
     2.472289          4.01
     2.431094         96.57
     2.429342        296.19
     2.387861         37.73
     2.386083         79.70
     2.383742        213.18
     2.364742         41.36
     2.342824        177.71
     2.332985         17.51
     2.317851        257.93
     2.297733         91.88
     2.266663        181.78
     2.260929         97.86
     2.216741        145.62
     2.200787         11.64
     2.197280         52.40
     2.185437          8.64
     2.174313         19.66
     2.169431          4.10
     2.168208         33.19
     2.160297         72.89
     2.152492         40.97
     2.148698          0.08
     2.136095          2.02
     2.122147          4.05
     2.120743          0.00
     2.113833        116.28
     2.110888         12.72
     2.104890         82.37
     2.104818        159.11
     2.082245         14.81
     2.080062         89.62
     2.067344        159.34
     2.050551        209.85
     2.040415         99.78
     2.038275         40.80
     2.021471        152.56
     2.018827         17.21
     2.010418        202.81
     2.002843         84.71
     2.000078          2.91
     1.996274         42.06
     1.991608         24.15
     1.982168         52.17
     1.965534          0.04
     1.963230          2.75
     1.957302         28.09
     1.952885         25.90
     1.949673          0.01
     1.938678         79.24
     1.929277          0.53
     1.927226         71.20
     1.925985         50.48
     1.918180         21.16
     1.906549          9.55
     1.901838         79.87
     1.897436          0.41
     1.895609          0.02
     1.890916         26.29
     1.890142         64.91
     1.888561          0.22
     1.884263          6.73
     1.880810         13.40
     1.873242         32.51
     1.860564         34.72
     1.857185         19.78
     1.834480         12.05
     1.823715          1.51
     1.821678          4.84
     1.814603         36.36
     1.809437          0.00
     1.808567          5.60
     1.807960         73.32
     1.796311         16.75
     1.793857          7.94
     1.780897          2.85
     1.780553          0.44
     1.771530         27.21
     1.765347         74.66
     1.757118         12.81
     1.756602         99.90
     1.753612          6.68
     1.748491         54.10
     1.746514        121.64
     1.744584        128.94
     1.736948        182.82
     1.734421          8.56
     1.733105          7.59
     1.731763         15.56
     1.730139         51.61
     1.726874          1.53
     1.722480         97.99
     1.713310          1.87
     1.706247        125.12
     1.704531         39.66
     1.702944          0.04
     1.700679        131.37
     1.700009         17.69
     1.698392         13.93
     1.690217         50.83
     1.680889          0.98
     1.680077         51.45
     1.677975        160.65
     1.673937          8.83
     1.669978          8.13
     1.667491         41.53
     1.664999          0.00
     1.662803        101.90
     1.655967          1.97
     1.654863         31.56
     1.653412          9.22
     1.641223         19.58
     1.638280          4.35
     1.634490         45.15
     1.631842         21.92
     1.630951         79.67
     1.629028         51.59
     1.622555          9.30
     1.607790         34.16
     1.602527        167.88
     1.594003        124.86
     1.589605         45.32
     1.587872          9.84
     1.585375         49.77
     1.583753          2.87
     1.580875         51.31
     1.574929        195.79
     1.573941         60.81
     1.570381        133.15
     1.568229         21.56
     1.564311          2.19
     1.564276          4.72
     1.561308         59.75
     1.558147         36.48
     1.557427          0.46
     1.555663         24.45
     1.550163         26.37
     1.546972          5.44
     1.542402         81.67
     1.538713          3.39
     1.535180         16.79
     1.531810          0.12
     1.530763          5.44
     1.529451         46.35
     1.527502          0.96
     1.524883         54.69
     1.523873         15.31
     1.523473         32.93
     1.522896          0.20
     1.521646          0.13
     1.513446          3.36
     1.512991          0.63
     1.512598         20.54
     1.512035          6.73
     1.508814         35.55
     1.508188         14.58
     1.505826          2.94
     1.501954         76.01
     1.498373          3.26
     1.497354          4.09
     1.495399          7.22
     1.493663          0.01
     1.490498          8.96
     1.487701          7.70
     1.485776          0.49
     1.484177          6.89
     1.483101         36.67
     1.482287          1.01
     1.481693         65.03
     1.480795          3.66
     1.477995         36.00
     1.475953          0.15
     1.475847          1.29
     1.475685          8.82
     1.471322          6.65
     1.467071          1.17
     1.466997         10.98
     1.466474         17.87
     1.460957         15.13
     1.459012          1.89
     1.455410          4.09
     1.451891         39.78
     1.448980          5.07
     1.448677          0.02
     1.446602         11.37
     1.445472          1.97
     1.445229          4.05
     1.443227         10.17
     1.435936         31.58
     1.434995          3.82
     1.433586          4.08
     1.432773         11.03
     1.430885         54.73
     1.426378         83.06
     1.425897          0.42
     1.424186          9.31
     1.422740         41.32
     1.421027          2.75
     1.420263          9.99
     1.417442         32.93
     1.413828         23.65
     1.411532          3.04
     1.409803         10.64
     1.409099         11.17
     1.407258          0.24
     1.406468         55.44
     1.405694          0.64
     1.401731          7.83
     1.399608          1.75
     1.399081         10.87
     1.398753         10.58
     1.398675          0.05
     1.392639         35.85
     1.391610          6.65
     1.390019          1.09
     1.389996         21.74
     1.387418         31.68
     1.387130         56.14
     1.386737          2.41
     1.386153         31.56
     1.385762          2.68
     1.382750          1.01
     1.381310          0.87
     1.376865          0.91
     1.374852          0.01
     1.373838          0.42
     1.373483         77.77
     1.372768         28.03
     1.371201          4.26
     1.369730          0.17
     1.368109          4.18
     1.367530         20.88
     1.365834          1.50
     1.365210         58.26
     1.362892         14.96
     1.362603         19.06
     1.361753         47.99
     1.358850          0.69
     1.354972          0.49
     1.353560         10.39
     1.351527          1.99
     1.350391         14.73
     1.349218          0.98
     1.345393          4.81
     1.340104          1.81
     1.339291          9.01
     1.336993         17.81
     1.336719         53.65
     1.335229          0.29
     1.332722          3.70
     1.332032          1.76
     1.330701          9.87
     1.327288          5.65
     1.325173          3.85
     1.322774         10.97
     1.322722         15.33
     1.319378          1.55
     1.318210         13.34
     1.317662          4.23
     1.315920          6.15
     1.315065          2.48
     1.311834          4.19
     1.307341          2.98
     1.306275         11.63
     1.305965         31.40
     1.305660          0.22
     1.304907          4.71
     1.300815          1.22
     1.299152          1.30
     1.296172          1.39
     1.295172          7.18
     1.288788          0.83
     1.286894          0.75
     1.286581         13.82
     1.286265         12.55
     1.286253          2.94
     1.285678         11.14
     1.283990          5.27
     1.282911         43.23
     1.282185          0.55
     1.282146          0.00
     1.282040         22.35
     1.281209          9.71
     1.279106          1.07
     1.277268          2.99
     1.276506          5.05
     1.276379          0.25
     1.273295          4.28
     1.271061          0.94
     1.268300         13.27
     1.267663          5.81
     1.266695          0.24
     1.265029          0.26
     1.264412          8.67
     1.263471         35.18
     1.262970          0.32
     1.262672          4.43
     1.262037          0.20
     1.260095          0.41
     1.258043          0.16
     1.255717         23.57
     1.255628          5.02
     1.254229          1.37
     1.253870          6.43
     1.250915          6.38
     1.250054          0.51
     1.249520          6.80
     1.248986          0.73
     1.247485         36.25
     1.246563         10.18
     1.246023          6.57
     1.245780          0.66
     1.245710          3.70
     1.243293         23.87
     1.240370         30.85
     1.240271          4.34
     1.238128          5.04
     1.238079          5.88
     1.237803         11.61
     1.236612         32.97
     1.236490          3.32
     1.236144          4.99
     1.235623          3.76
     1.235342          0.66
     1.232778          0.75
     1.231911         13.75
     1.231716          4.47
     1.231147          0.44
     1.230569          0.07
     1.230103          4.01
     1.228366          9.00
     1.227572         15.74
     1.227448          5.76
     1.225387          0.73
     1.222685          0.16
     1.221740          5.67
     1.221025          0.46
     1.219347         28.06
     1.218680          2.64
     1.217758          4.32
     1.217507          7.63
     1.216600          1.42
     1.215547          1.96
     1.214671          4.16
     1.213497          2.38
     1.213060          0.00
     1.210150          5.59
     1.208581          3.32
     1.208026          0.55
     1.207980         36.67
     1.206178         18.58
     1.205081          1.26
     1.203662          8.19
     1.201287         23.47
     1.200803          0.15
     1.200535          0.30
     1.197730         25.92
     1.196854          7.05
     1.193931          5.08
     1.193899         12.25
     1.193143          0.36
     1.193041          3.91
     1.192111          7.68
     1.191871          2.45
     1.191560          3.92
     1.190113          0.04
     1.190091         14.97
     1.189239          8.49
     1.187265          7.63
     1.186943          5.81
     1.184976         30.00
     1.183435          0.77
     1.182371          8.23
     1.182045          2.32
     1.180042          1.11
     1.179541          5.97
     1.179018          4.37
     1.178770          3.21
     1.177889          1.84
     1.176090          4.84
     1.174678          2.63
     1.174535          0.00
     1.174312          0.00
     1.173873          0.09
     1.173078         11.56
     1.172040          1.76
     1.171412          2.82
     1.170956          0.29
     1.168276         11.61
     1.167423          0.04
     1.166493          6.23
     1.166398         15.95
     1.166230          2.44
     1.166010          5.50
     1.165792          1.89
     1.164604          0.13
     1.164570          0.49
     1.164424          2.14
     1.164314         11.73
     1.161412          8.72
     1.161153         10.58
     1.159933         12.55
     1.159711         50.15
     1.159023          0.61
     1.158926          0.00
     1.158765          2.77
     1.158116          3.71
     1.156876          0.79
     1.156318          1.08
     1.156038          0.23
     1.155835          9.02
     1.151595          0.85
     1.150269         17.40
     1.148991          9.47
     1.148886          0.43
     1.148866         14.96
     1.148320          3.96
     1.148288          0.29
     1.147669         28.25
     1.144671          3.60
     1.144256          0.10
     1.144182          0.00
     1.142398          4.13
     1.141103          0.17
     1.140966          0.12
     1.137997          2.09
     1.136596          4.42
     1.136512          6.56
     1.136354         10.06
     1.136205          2.52
     1.133369          7.65
     1.133332          3.75
     1.132448          0.52
     1.132329          2.90
     1.132261         10.52
     1.131895          9.21
     1.130465          1.17
     1.130154          4.09
     1.129828          5.49
     1.127961          3.35
     1.127843          2.30
     1.127398          0.00
     1.125308         11.83
     1.124918         15.19
     1.124067          5.49
     1.123065          1.50
     1.122751          0.22
     1.121496         18.78
     1.120753          0.25
     1.120173          0.41
     1.119738          0.07
     1.118519          2.82
     1.116109         15.65
     1.115852          0.26
##############################################################################
###                            Comments                                    ###
##############################################################################
###   Baia Sprie mine, Romania
###   Diffraction pattern calculated by Match!. 
###   I/Ic calculated by Match!. 
##############################################################################


