##############################################################################
###               Crystal structure data exported by Match!                ###
##############################################################################
###                           Data published by:                           ###
###                                                                        ###
###               COD (Crystallography Open Database)
##############################################################################
data_1011231
_citation_journal_full    'Norsk Geologisk Tidsskrift'
_citation_journal_volume  '8'
_citation_page_first  '250'
_citation_page_last   '257'
_citation_year  '1926'
_citation_title  'The crystal structure of skutterudite and related minerals'
loop_
_publ_author_name
  'Oftedal I'
_chemical_formula_sum  'As3 Co'
_chemical_name_mineral  'Skutterudite'
_chemical_name_common  'Cobalt arsenide (1/3)'
_symmetry_space_group_name_H-M 'I m -3'
_space_group_IT_number 204
_space_group_crystal_system 'cubic'
loop_
_symmetry_equiv_pos_as_xyz
   'x, y, z'
   'x+0.5, y+0.5, z+0.5'
   'z, x, y'
   'z+0.5, x+0.5, y+0.5'
   'y, z, x'
   'y+0.5, z+0.5, x+0.5'
   '-y, -z, x'
   '-y+0.5, -z+0.5, x+0.5'
   'z, -x, -y'
   'z+0.5, -x+0.5, -y+0.5'
   '-y, z, -x'
   '-y+0.5, z+0.5, -x+0.5'
   '-z, -x, y'
   '-z+0.5, -x+0.5, y+0.5'
   '-z, x, -y'
   '-z+0.5, x+0.5, -y+0.5'
   'y, -z, -x'
   'y+0.5, -z+0.5, -x+0.5'
   '-x, -y, z'
   '-x+0.5, -y+0.5, z+0.5'
   'x, -y, -z'
   'x+0.5, -y+0.5, -z+0.5'
   '-x, y, -z'
   '-x+0.5, y+0.5, -z+0.5'
   '-x, -y, -z'
   '-x+0.5, -y+0.5, -z+0.5'
   '-z, -x, -y'
   '-z+0.5, -x+0.5, -y+0.5'
   '-y, -z, -x'
   '-y+0.5, -z+0.5, -x+0.5'
   'y, z, -x'
   'y+0.5, z+0.5, -x+0.5'
   '-z, x, y'
   '-z+0.5, x+0.5, y+0.5'
   'y, -z, x'
   'y+0.5, -z+0.5, x+0.5'
   'z, x, -y'
   'z+0.5, x+0.5, -y+0.5'
   'z, -x, y'
   'z+0.5, -x+0.5, y+0.5'
   '-y, z, x'
   '-y+0.5, z+0.5, x+0.5'
   'x, y, -z'
   'x+0.5, y+0.5, -z+0.5'
   '-x, y, z'
   '-x+0.5, y+0.5, z+0.5'
   'x, -y, z'
   'x+0.5, -y+0.5, z+0.5'
_cell_length_a        8.17000
_cell_length_b        8.17000
_cell_length_c        8.17000
_cell_angle_alpha    90.0000
_cell_angle_beta     90.0000
_cell_angle_gamma    90.0000
_cell_formula_units_Z 8
loop_
_atom_site_label
_atom_site_fract_x
_atom_site_fract_y
_atom_site_fract_z
_atom_site_occupancy
_atom_site_B_iso_or_equiv
co      0.250   0.250   0.250    1.00000    1.000
as      0.000   0.350   0.150    1.00000    1.000
_cell_measurement_wavelength    1.541874
_cell_measurement_radiation   'x-rays'
_exptl_crystal_density_diffrn    6.910000
_exptl_crystal_density_meas      6.799000
loop_
_pd_peak_d_spacing
_pd_peak_intensity
     5.777062        180.26
     4.085000         60.11
     3.335389         92.01
     2.888531         20.94
     2.583581       1000.00
     2.358476         25.10
     2.183524        238.91
     2.042500          1.41
     1.925687         77.39
     1.826868        334.77
     1.741850         84.40
     1.667694        166.54
     1.602269        309.37
     1.491631          3.82
     1.444266          1.03
     1.401143         78.26
     1.361667         41.67
     1.325349         10.66
     1.291790         32.92
     1.260658         13.56
     1.231674         36.08
     1.204601         93.76
     1.179238         56.51
     1.155412         35.11
     1.132975         38.68
     1.111796         27.66
     1.091762          0.19
     1.072774         74.46
     1.037591         42.36
     1.021250         20.00
##############################################################################
###                            Comments                                    ###
##############################################################################
###   Diffraction pattern calculated by Match!. 
###   I/Ic calculated by Match!. 
##############################################################################


