##############################################################################
###               Crystal structure data exported by Match!                ###
##############################################################################
###                           Data published by:                           ###
###                                                                        ###
###               COD (Crystallography Open Database)
##############################################################################
data_9010315
_citation_journal_full    'American Mineralogist'
_citation_journal_volume  '92'
_citation_page_first  '1464'
_citation_page_last   '1473'
_citation_year  '2007'
_citation_title  'Jarosite - hydronium jarosite solid solution series withfull iron occupancy: Mineralogy and crystal chemistryLocality: syntheticSample: I'
loop_
_publ_author_name
  'Basciano L. C.'
  'Peterson R. C.'
_chemical_formula_sum  'Fe3 H6.05 K0.95 O14 S2'
_chemical_name_mineral  'Jarosite'
_symmetry_space_group_name_H-M 'R -3 m'
_space_group_IT_number 166
_space_group_crystal_system 'trigonal (hexagonal axes)'
loop_
_symmetry_equiv_pos_as_xyz
   'x, y, z'
   'x+0.66667, y+0.33333, z+0.33333'
   'x+0.33333, y+0.66667, z+0.66667'
   '-y, x-y, z'
   '-y+0.66667, x-y+0.33333, z+0.33333'
   '-y+0.33333, x-y+0.66667, z+0.66667'
   '-x+y, -x, z'
   '-x+y+0.66667, -x+0.33333, z+0.33333'
   '-x+y+0.33333, -x+0.66667, z+0.66667'
   'x-y, -y, -z'
   'x-y+0.66667, -y+0.33333, -z+0.33333'
   'x-y+0.33333, -y+0.66667, -z+0.66667'
   '-x, -x+y, -z'
   '-x+0.66667, -x+y+0.33333, -z+0.33333'
   '-x+0.33333, -x+y+0.66667, -z+0.66667'
   'y, x, -z'
   'y+0.66667, x+0.33333, -z+0.33333'
   'y+0.33333, x+0.66667, -z+0.66667'
   '-x, -y, -z'
   '-x+0.66667, -y+0.33333, -z+0.33333'
   '-x+0.33333, -y+0.66667, -z+0.66667'
   'y, -x+y, -z'
   'y+0.66667, -x+y+0.33333, -z+0.33333'
   'y+0.33333, -x+y+0.66667, -z+0.66667'
   'x-y, x, -z'
   'x-y+0.66667, x+0.33333, -z+0.33333'
   'x-y+0.33333, x+0.66667, -z+0.66667'
   '-x+y, y, z'
   '-x+y+0.66667, y+0.33333, z+0.33333'
   '-x+y+0.33333, y+0.66667, z+0.66667'
   'x, x-y, z'
   'x+0.66667, x-y+0.33333, z+0.33333'
   'x+0.33333, x-y+0.66667, z+0.66667'
   '-y, -x, z'
   '-y+0.66667, -x+0.33333, z+0.33333'
   '-y+0.33333, -x+0.66667, z+0.66667'
_cell_length_a        7.30293
_cell_length_b        7.30293
_cell_length_c       17.20430
_cell_angle_alpha    90.0000
_cell_angle_beta     90.0000
_cell_angle_gamma   120.0000
loop_
_atom_site_label
_atom_site_fract_x
_atom_site_fract_y
_atom_site_fract_z
_atom_site_occupancy
_atom_site_B_iso_or_equiv
k      0.000   0.000   0.000    0.95000    1.039
o      0.000   0.000   0.000    0.05000    1.039
fe      0.167   -0.167   -0.167    1.00000    1.800
s      0.000   0.000   0.309    1.00000    1.149
o      0.000   0.000   0.394    1.00000    1.800
o      0.221   -0.221   -0.054    1.00000    1.519
o      0.125   -0.125   0.134    1.00000    0.799
h      0.186   -0.186   0.129    1.00000    1.999
_cell_measurement_wavelength    1.541874
_cell_measurement_radiation   'x-rays'
_exptl_crystal_density_diffrn    3.128000
loop_
_pd_peak_d_spacing
_pd_peak_intensity
     5.936127        323.84
     5.734767        236.14
     5.095524        546.64
     3.651465        100.83
     3.556568         28.68
     3.110160        625.15
     3.080097       1000.00
     3.022498          8.23
     2.968064        125.92
     2.867383        193.18
     2.547762        206.74
     2.367699         22.79
     2.328329          6.78
     2.303170         19.57
     2.290859        309.70
     2.255164          0.20
     2.108174          1.50
     2.089427          0.01
     2.036051          1.61
     1.978709        310.05
     1.963183          9.43
     1.940565         82.55
     1.911589         45.13
     1.825732        299.84
     1.778284         50.56
     1.745060          3.63
     1.739697         35.04
     1.718737         32.25
     1.713603         24.80
     1.698508          0.19
     1.693552         22.53
     1.660104          1.49
     1.624225         22.60
     1.598769         37.11
     1.574495         33.32
     1.562755         40.40
     1.555080         55.62
     1.540049        146.41
     1.518290          1.00
     1.511249        185.91
     1.484032         52.37
     1.445812         16.42
     1.436706         20.28
     1.433692          1.42
     1.430735         21.24
     1.427769         26.22
     1.416109         30.13
     1.401928         24.57
     1.396379          0.02
     1.380124          8.78
     1.374824          5.41
     1.359282          2.59
     1.341814         77.64
     1.336942          0.59
     1.334512          1.06
     1.329732         16.34
     1.320297         22.15
     1.308781          0.48
     1.295353         14.61
     1.273881          4.40
     1.261500          0.14
     1.251447          1.28
     1.249461         56.15
     1.243573          1.23
     1.228261         14.07
     1.220811          1.40
     1.217155         21.57
     1.213515          0.26
     1.206318          0.06
     1.202787          0.14
     1.192349         18.19
     1.190633         18.41
     1.187225          0.02
     1.185523          7.39
     1.183850         10.60
     1.167374          0.54
     1.164164         26.61
     1.157815         34.08
     1.151585         27.95
     1.146953          0.16
     1.145429          6.07
     1.133450          0.43
     1.129046         30.27
     1.127582         15.43
     1.126142          6.10
     1.124694          2.46
     1.120394          0.02
     1.118968          9.94
     1.111932         12.13
     1.109157          0.72
     1.098262          1.26
     1.094242          1.51
     1.092918          7.98
     1.090291          3.47
     1.078660          8.97
     1.074862          0.24
     1.063706          0.01
     1.060057          0.17
     1.056459         18.85
     1.054087         14.07
     1.044714         12.60
     1.037852          0.49
     1.036720          3.95
     1.032232          2.01
     1.031117          4.03
     1.026699          0.56
     1.019105          0.00
     1.018025         19.77
     1.014837          0.20
     1.012734          1.33
     1.010634          0.10
     1.007499          1.01
     1.006466          2.67
##############################################################################
###                            Comments                                    ###
##############################################################################
###   Diffraction pattern calculated by Match!. 
###   I/Ic calculated by Match!. 
##############################################################################


