##############################################################################
###               Crystal structure data exported by Match!                ###
##############################################################################
###                           Data published by:                           ###
###                                                                        ###
###               COD (Crystallography Open Database)
##############################################################################
data_1537207
_citation_journal_full    'Journal of Physical Chemistry'
_citation_journal_volume  '94'
_citation_page_first  '3718'
_citation_page_last   '3721'
_citation_year  '1990'
_citation_title  'Crystal structure of silica-ZSM-12 by the combined use of high-resolution mas nmr solid-state spectroscopy and synchrotron x-ray powderdiffraction.'
loop_
_publ_author_name
  'Fyfe C.A.'
  'Gies H.'
  'Kokotailo G.T.'
  'Marler B.'
  'Cox D.E.'
_chemical_formula_sum  'O2 Si'
_chemical_name_common  'Silica'
_symmetry_space_group_name_H-M 'C 1 2/c 1'
_space_group_IT_number 15
_space_group_crystal_system 'monoclinic'
loop_
_symmetry_equiv_pos_as_xyz
   'x, y, z'
   'x+0.5, y+0.5, z'
   '-x, y, -z+0.5'
   '-x+0.5, y+0.5, -z+0.5'
   '-x, -y, -z'
   '-x+0.5, -y+0.5, -z'
   'x, -y, z+0.5'
   'x+0.5, -y+0.5, z+0.5'
_cell_length_a       24.86330
_cell_length_b        5.01238
_cell_length_c       24.37250
_cell_angle_alpha    90.0000
_cell_angle_beta    107.7210
_cell_angle_gamma    90.0000
_cell_formula_units_Z 56
loop_
_atom_site_label
_atom_site_fract_x
_atom_site_fract_y
_atom_site_fract_z
_atom_site_occupancy
_atom_site_B_iso_or_equiv
si      0.440   0.532   0.413    1.00000    1.000
o      0.330   -0.004   0.396    1.00000    1.000
o      0.107   0.137   0.439    1.00000    1.000
o      0.185   0.448   0.503    1.00000    1.000
si      0.375   0.032   0.361    1.00000    1.000
o      0.300   0.090   0.189    1.00000    1.000
o      0.250   0.244   0.263    1.00000    1.000
o      0.424   0.822   0.387    1.00000    1.000
o      0.345   -0.022   0.297    1.00000    1.000
o      0.234   0.883   0.409    1.00000    1.000
si      0.284   0.082   0.427    1.00000    1.000
o      0.428   0.505   0.473    1.00000    1.000
o      0.155   0.510   0.391    1.00000    1.000
o      0.503   0.472   0.422    1.00000    1.000
o      0.400   0.337   0.370    1.00000    1.000
o      0.260   0.372   0.408    1.00000    1.000
si      0.068   -0.071   0.459    1.00000    1.000
o      0.084   -0.362   0.451    1.00000    1.000
si      0.214   0.585   0.383    1.00000    1.000
si      0.287   0.010   0.246    1.00000    1.000
si      0.134   0.422   0.448    1.00000    1.000
_cell_measurement_wavelength    1.541874
_cell_measurement_radiation   'x-rays'
_exptl_crystal_density_diffrn    1.931000
loop_
_pd_peak_d_spacing
_pd_peak_intensity
    11.841768        780.00
    11.608012       1000.00
     9.938591        633.50
     7.258330         49.75
     6.075791          0.24
     5.980481         75.74
     5.920884          4.33
     5.804006         82.28
     4.969296          0.44
     4.903760          2.25
     4.860234          0.33
     4.737901          9.30
     4.724354         85.81
     4.679127         37.17
     4.622872         68.31
     4.418503         43.17
     4.288180          0.90
     4.265486          4.18
     4.231518        735.98
     4.202335         10.32
     4.140982         27.76
     4.060963         13.50
     4.048057         21.88
     4.028949          6.56
     3.997393          3.90
     3.947256         67.63
     3.869337        182.28
     3.867892          4.85
     3.854865         94.07
     3.813980        219.03
     3.782012         11.20
     3.720392         20.94
     3.634570          4.35
     3.629165         18.98
     3.520329         57.54
     3.519671         10.45
     3.482964          0.51
     3.481329         12.93
     3.442691         98.08
     3.440846         24.89
     3.432216          5.15
     3.417450         10.42
     3.386239        114.19
     3.312864         77.28
     3.301134          2.37
     3.298424         54.10
     3.270264          0.07
     3.181109         57.25
     3.135200          9.95
     3.120261          2.61
     3.117911          6.85
     3.114715          0.00
     3.103750          3.91
     3.040673         39.11
     3.037896         19.57
     2.990241          3.97
     2.960442          1.29
     2.948572          2.04
     2.915083          2.39
     2.911726          1.32
     2.902003          0.56
     2.900816          3.50
     2.897861         13.00
     2.881485         36.47
     2.879464         25.00
     2.871645          0.03
     2.864288          0.01
     2.845446          0.04
     2.831293          5.51
     2.818911          0.51
     2.804294          6.67
     2.797835          0.02
     2.775860          3.47
     2.723741         16.40
     2.709619          0.05
     2.706324          0.73
     2.704024         17.70
     2.679931          5.81
     2.670253          0.03
     2.648419         28.55
     2.639009          0.64
     2.604203         14.09
     2.599219          0.42
     2.581279         25.13
     2.569429          8.62
     2.512309          5.95
     2.509205         19.63
     2.506190         90.12
     2.491714          1.00
     2.484648          1.36
     2.472645          2.39
     2.471734          0.78
     2.470672          9.28
     2.454530          5.44
     2.451880          2.63
     2.449745         12.46
     2.446243          0.94
     2.431192          6.23
     2.430117          9.08
     2.426980         16.54
     2.425282         13.80
     2.422426          1.14
     2.421640          0.74
     2.419443          0.00
     2.418146          6.72
     2.413297          1.64
     2.397053          5.14
     2.384275          0.42
     2.382968          0.00
     2.382052          0.62
     2.380973          9.10
     2.368950          0.37
     2.368354          0.10
     2.365952          3.87
     2.362177          0.16
     2.351986          1.89
     2.344656          5.26
     2.339563          5.15
     2.335802          0.78
     2.331889          1.99
     2.329927         11.38
     2.328855         10.86
     2.326002         15.07
     2.323933          1.99
     2.321602          0.04
     2.316829          0.87
     2.311436          0.01
     2.307951          2.37
     2.307267          2.17
     2.300851          1.06
     2.296074          4.93
     2.287259          1.16
     2.286851          4.18
     2.270268          0.00
     2.258593         19.35
     2.237711          0.41
     2.229600          3.11
     2.226880          0.10
     2.225892          0.20
     2.213959          0.00
     2.209252          1.76
     2.206635          2.94
     2.205437          0.26
     2.194272          0.01
     2.193454          0.69
     2.191764          3.10
     2.190277          8.21
     2.176687          3.55
     2.174112          0.48
     2.171985          0.64
     2.170350          2.76
     2.161507          2.42
     2.158922          0.21
     2.157614          5.48
     2.151418          2.22
     2.144090          3.08
     2.143142          2.83
     2.138802          0.02
     2.132743          0.07
     2.131227          2.78
     2.116496          0.24
     2.115759          6.33
     2.113843          1.22
     2.103502          6.36
     2.101168          2.97
     2.094472          3.99
     2.081516          2.23
     2.076628          1.38
     2.070491          0.20
     2.067083          3.64
     2.062246          0.04
     2.061996          1.19
     2.059843          2.92
     2.058361          0.00
     2.058172          0.60
     2.056318          9.20
     2.056027          1.50
     2.051633          0.86
     2.048976          1.69
     2.047276          1.38
     2.039312          0.24
     2.036948          2.66
     2.033826          0.01
     2.030482         44.96
     2.025264          1.81
     2.025238          0.29
     2.024028          0.87
     2.021077          0.56
     2.019481          6.51
     2.014474          0.05
     2.010474          0.00
     2.009480          0.14
     2.009148          1.51
     2.008149          1.06
     2.003036          0.02
     1.999510          0.00
     1.998696          0.02
     1.993494          0.14
     1.991044          0.43
     1.987718          3.86
     1.985149         11.90
     1.984568          1.35
     1.978265          6.36
     1.975410          0.45
     1.973628          0.11
     1.967428          0.43
     1.961089          4.85
     1.956714          4.23
     1.949879          0.04
     1.948326          0.25
     1.937792          7.28
     1.937442          0.74
     1.934669          0.24
     1.933946          5.16
     1.933231         16.93
     1.932380          0.09
     1.927433          2.16
     1.926079          2.26
     1.924145          7.87
     1.920776          1.28
     1.916272          0.19
     1.914760          0.37
     1.912809          4.32
     1.908322          9.22
     1.906990          0.82
     1.905513          0.03
     1.900596          0.00
     1.896770          0.00
     1.895719          0.55
     1.891006         11.26
     1.888416          1.35
     1.886121          1.04
     1.879250          0.01
     1.876388          0.24
     1.874887          1.41
     1.872803          0.06
     1.866767          0.09
     1.865650          0.01
     1.860196          0.03
     1.854655          1.31
     1.839688          8.81
     1.837427          4.54
     1.835881          0.11
     1.831366          0.11
     1.830486          1.47
     1.828494          3.61
     1.823092          4.71
     1.821715          4.39
     1.819020          0.16
     1.817285          1.54
     1.816709          2.22
     1.814582          0.00
     1.802155          1.64
     1.799661          0.06
     1.797795         16.18
     1.797522          0.34
     1.797073          0.31
     1.793767          0.00
     1.791711          0.06
     1.788595          3.21
     1.786822          0.11
     1.784896          1.28
     1.782825          5.20
     1.780283          4.19
     1.778509         15.95
     1.777287          3.67
     1.776445          0.42
     1.775787          0.34
     1.769789          2.07
     1.768503          0.11
     1.765079          3.80
     1.764478          2.24
     1.763551          0.97
     1.762156          0.02
     1.760164          2.07
     1.759835          0.81
     1.758933          0.10
     1.753399          1.87
     1.751819          0.54
     1.751531          0.80
     1.750829          0.00
     1.745342          0.66
     1.744700          6.37
     1.744585          0.22
     1.743465          0.07
     1.741482          1.00
     1.740664          2.21
     1.740326          0.01
     1.737468          0.02
     1.736033          0.15
     1.730517          1.98
     1.728185          4.44
     1.723744          4.34
     1.721345          0.03
     1.720423          1.59
     1.718970          0.37
     1.716108          0.09
     1.715547          4.71
     1.715084          0.92
     1.713109          5.74
     1.712221          1.64
     1.710196          0.00
     1.708725          0.10
     1.705290          2.03
##############################################################################
###                            Comments                                    ###
##############################################################################
###   Diffraction pattern calculated by Match!. 
###   I/Ic calculated by Match!. 
###   Space group has been derived from given symmetry operations. 
##############################################################################


