##############################################################################
###               Crystal structure data exported by Match!                ###
##############################################################################
###                           Data published by:                           ###
###                                                                        ###
###               COD (Crystallography Open Database)
##############################################################################
data_7202758
_citation_journal_full    'CrystEngComm'
_citation_journal_volume  '9(6)'
_citation_page_first  '463'
_citation_year  '2007'
_citation_title  'A computational study into the viability of new molecular materialspolymorphs based on fully-coordinated inorganic nanoclusters'
loop_
_publ_author_name
  'Bromley Stefan T.'
_chemical_formula_sum  'O2 Si'
_chemical_name_common  'Silica'
_symmetry_space_group_name_H-M 'P 1'
_space_group_IT_number 1
_space_group_crystal_system 'triclinic'
loop_
_symmetry_equiv_pos_as_xyz
   'x, y, z'
_cell_length_a       11.89060
_cell_length_b       11.14540
_cell_length_c       20.53980
_cell_angle_alpha    89.8300
_cell_angle_beta     77.7700
_cell_angle_gamma   118.0500
loop_
_atom_site_label
_atom_site_fract_x
_atom_site_fract_y
_atom_site_fract_z
_atom_site_occupancy
_atom_site_B_iso_or_equiv
si      0.738   0.654   0.770    1.00000    1.000
si      0.263   0.349   0.230    1.00000    1.000
si      0.661   0.614   0.639    1.00000    1.000
si      0.341   0.389   0.360    1.00000    1.000
si      0.907   0.534   0.750    1.00000    1.000
si      0.095   0.469   0.249    1.00000    1.000
si      0.574   0.555   0.871    1.00000    1.000
si      0.427   0.448   0.128    1.00000    1.000
si      0.786   0.330   0.873    1.00000    1.000
si      0.216   0.673   0.126    1.00000    1.000
si      0.791   0.470   0.562    1.00000    1.000
si      0.211   0.533   0.437    1.00000    1.000
si      0.917   0.427   0.651    1.00000    1.000
si      0.085   0.576   0.348    1.00000    1.000
si      0.620   0.358   0.945    1.00000    1.000
si      0.382   0.644   0.054    1.00000    1.000
si      0.436   0.504   0.638    1.00000    1.000
si      0.566   0.499   0.361    1.00000    1.000
si      0.288   0.413   0.872    1.00000    1.000
si      0.714   0.590   0.127    1.00000    1.000
si      0.703   0.083   0.812    1.00000    1.000
si      0.299   0.920   0.187    1.00000    1.000
si      0.761   0.127   0.693    1.00000    1.000
si      0.240   0.876   0.306    1.00000    1.000
si      0.230   0.384   0.768    1.00000    1.000
si      0.772   0.619   0.231    1.00000    1.000
si      0.626   0.266   0.536    1.00000    1.000
si      0.375   0.736   0.464    1.00000    1.000
si      0.374   0.126   0.973    1.00000    1.000
si      0.627   0.877   0.026    1.00000    1.000
si      0.366   0.264   0.571    1.00000    1.000
si      0.635   0.739   0.428    1.00000    1.000
si      0.207   0.158   0.946    1.00000    1.000
si      0.794   0.845   0.053    1.00000    1.000
si      0.556   0.018   0.613    1.00000    1.000
si      0.446   0.985   0.386    1.00000    1.000
si      0.417   -0.062   0.881    1.00000    1.000
si      0.585   1.065   0.118    1.00000    1.000
si      0.070   0.088   0.757    1.00000    1.000
si      0.932   0.915   0.242    1.00000    1.000
si      0.199   0.058   0.634    1.00000    1.000
si      0.802   0.945   0.365    1.00000    1.000
si      0.083   -0.031   0.847    1.00000    1.000
si      0.918   1.034   0.152    1.00000    1.000
si      0.253   -0.149   0.820    1.00000    1.000
si      0.749   1.152   0.179    1.00000    1.000
si      0.331   -0.094   0.670    1.00000    1.000
si      0.671   1.097   0.330    1.00000    1.000
o      0.730   0.701   0.696    1.00000    1.000
o      0.272   0.302   0.303    1.00000    1.000
o      0.885   0.667   0.763    1.00000    1.000
o      0.117   0.336   0.236    1.00000    1.000
o      0.901   0.459   0.820    1.00000    1.000
o      0.100   0.543   0.179    1.00000    1.000
o      0.772   0.604   0.579    1.00000    1.000
o      0.230   0.399   0.420    1.00000    1.000
o      1.030   0.537   0.690    1.00000    1.000
o      -0.029   0.466   0.309    1.00000    1.000
o      0.602   0.494   0.936    1.00000    1.000
o      0.400   0.508   0.064    1.00000    1.000
o      0.563   0.663   0.611    1.00000    1.000
o      0.439   0.340   0.389    1.00000    1.000
o      0.423   0.529   0.890    1.00000    1.000
o      0.579   0.474   0.109    1.00000    1.000
o      0.767   0.381   0.950    1.00000    1.000
o      0.234   0.622   0.049    1.00000    1.000
o      0.928   0.489   0.577    1.00000    1.000
o      0.073   0.514   0.423    1.00000    1.000
o      0.794   0.190   0.859    1.00000    1.000
o      0.207   0.813   0.141    1.00000    1.000
o      0.761   0.404   0.490    1.00000    1.000
o      0.240   0.599   0.509    1.00000    1.000
o      0.891   0.269   0.653    1.00000    1.000
o      0.110   0.734   0.346    1.00000    1.000
o      0.495   0.237   1.002    1.00000    1.000
o      0.506   0.766   -0.003    1.00000    1.000
o      0.310   0.483   0.697    1.00000    1.000
o      0.692   0.519   0.302    1.00000    1.000
o      0.321   0.343   0.805    1.00000    1.000
o      0.680   0.660   0.195    1.00000    1.000
o      0.385   0.419   0.575    1.00000    1.000
o      0.617   0.584   0.425    1.00000    1.000
o      0.196   0.298   0.939    1.00000    1.000
o      0.806   0.705   0.060    1.00000    1.000
o      0.669   0.160   0.755    1.00000    1.000
o      0.333   0.843   0.244    1.00000    1.000
o      0.568   -0.038   0.860    1.00000    1.000
o      0.434   1.041   0.139    1.00000    1.000
o      0.682   0.033   0.640    1.00000    1.000
o      0.320   0.970   0.359    1.00000    1.000
o      0.610   0.112   0.540    1.00000    1.000
o      0.392   0.891   0.459    1.00000    1.000
o      0.099   0.247   0.757    1.00000    1.000
o      0.903   0.756   0.242    1.00000    1.000
o      0.393   -0.008   0.955    1.00000    1.000
o      0.609   1.011   0.044    1.00000    1.000
o      0.230   0.132   0.556    1.00000    1.000
o      0.771   0.871   0.443    1.00000    1.000
o      0.092   0.033   0.919    1.00000    1.000
o      0.909   0.970   0.080    1.00000    1.000
o      0.495   0.266   0.523    1.00000    1.000
o      0.506   0.737   0.476    1.00000    1.000
o      0.224   0.096   1.016    1.00000    1.000
o      0.777   0.907   -0.017    1.00000    1.000
o      0.374   0.005   0.825    1.00000    1.000
o      0.627   0.998   0.175    1.00000    1.000
o      0.460   0.057   0.670    1.00000    1.000
o      0.542   0.946   0.329    1.00000    1.000
o      0.061   0.036   0.682    1.00000    1.000
o      0.941   0.967   0.317    1.00000    1.000
o      0.219   -0.078   0.641    1.00000    1.000
o      0.783   1.081   0.358    1.00000    1.000
o      -0.041   -0.028   0.821    1.00000    1.000
o      1.042   1.031   0.178    1.00000    1.000
o      0.105   -0.165   0.850    1.00000    1.000
o      0.896   1.168   0.149    1.00000    1.000
o      0.263   -0.188   0.743    1.00000    1.000
o      0.739   1.191   0.257    1.00000    1.000
o      0.793   0.043   0.750    1.00000    1.000
o      0.208   0.960   0.250    1.00000    1.000
o      0.300   -0.220   0.874    1.00000    1.000
o      0.702   1.223   0.126    1.00000    1.000
o      0.428   -0.138   0.614    1.00000    1.000
o      0.574   1.141   0.385    1.00000    1.000
o      0.360   0.198   0.906    1.00000    1.000
o      0.641   0.804   0.093    1.00000    1.000
o      0.633   0.295   0.872    1.00000    1.000
o      0.368   0.708   0.127    1.00000    1.000
o      0.798   0.436   0.708    1.00000    1.000
o      0.204   0.567   0.291    1.00000    1.000
o      0.665   0.327   0.606    1.00000    1.000
o      0.336   0.676   0.393    1.00000    1.000
o      0.326   0.196   0.650    1.00000    1.000
o      0.675   0.807   0.349    1.00000    1.000
o      0.190   0.073   0.780    1.00000    1.000
o      0.811   0.929   0.219    1.00000    1.000
o      0.616   0.497   0.801    1.00000    1.000
o      0.386   0.506   0.199    1.00000    1.000
o      0.532   0.461   0.668    1.00000    1.000
o      0.469   0.542   0.331    1.00000    1.000
o      0.690   0.716   0.838    1.00000    1.000
o      0.312   0.287   0.161    1.00000    1.000
o      0.201   0.462   0.835    1.00000    1.000
o      0.801   0.541   0.165    1.00000    1.000
_cell_measurement_wavelength    1.541874
_cell_measurement_radiation   'x-rays'
_exptl_crystal_density_diffrn    2.054000
loop_
_pd_peak_d_spacing
_pd_peak_intensity
    19.931173         83.86
    10.182994       1000.00
    10.111742          1.86
     9.965586        698.38
     9.787672          5.04
     9.766418          0.15
     9.213806        831.97
     9.206935        771.49
     8.417106         31.64
     8.384925         15.38
     8.292541          8.75
     8.178283        226.02
     7.431040          8.74
     7.414546          4.29
     6.643724          0.72
     6.618948          3.42
     6.594203          2.19
     6.392052        704.18
     6.304819          0.00
     5.907117        246.27
     5.899569        310.00
     5.824817        220.79
     5.810666        229.33
     5.804472          3.49
     5.791176          0.25
     5.572657         59.79
     5.532529          0.05
     5.531657         19.67
     5.371714          1.57
     5.361964          0.00
     5.289758         61.50
     5.275054         86.17
     5.246417          6.19
     5.229156        112.19
     5.212457         63.19
     5.091497        365.11
     5.055871        136.56
     5.035231         30.56
     4.982793        216.12
     4.975375        199.11
     4.899127          2.62
     4.896028         33.85
     4.893836        418.37
     4.883209        344.80
     4.882189         11.95
     4.878946          0.33
     4.871129        325.40
     4.856614        412.19
     4.669922          9.20
     4.668982          4.50
     4.658493          0.85
     4.632936          0.41
     4.621042         12.34
     4.617694          4.86
     4.615333         15.01
     4.608141          0.94
     4.606903        287.06
     4.603467        176.85
     4.276947          1.91
     4.262220         24.54
     4.250474         10.62
     4.239087          5.75
     4.237808          1.49
     4.233407         12.19
     4.208553         20.33
     4.192462          1.05
     4.179020          6.13
     4.171868          1.52
     4.146270          0.11
     4.101525         42.99
     4.089142         35.61
     4.059822          7.54
     3.986235         12.72
     3.985492        137.15
     3.975223         84.21
     3.928156        126.88
     3.923185         12.63
     3.879636         27.49
     3.876682         44.55
     3.854530        139.85
     3.846826        107.45
     3.828903          0.17
     3.823223         31.44
     3.822536          0.18
     3.816598         14.02
     3.763689          5.94
     3.754027         72.05
     3.745910         85.21
     3.743364          6.00
     3.742981        102.37
     3.728753         69.82
     3.720947         47.17
     3.715520         35.37
     3.708018         82.18
     3.707273        114.82
     3.698533         70.54
     3.697567        101.65
     3.657949         93.87
     3.656460          3.05
     3.653579          3.42
     3.653130          0.80
     3.638978          9.26
     3.623458        143.26
     3.622203        103.11
     3.612003         53.64
     3.605178          4.48
     3.587512          0.03
     3.584924         59.84
     3.573690         38.90
     3.571221         96.67
     3.563827          4.35
     3.554700         74.93
     3.554372         45.23
     3.554118          3.17
     3.546046         28.70
     3.488560          0.03
     3.483000          0.03
     3.479906          1.58
     3.477898          0.26
     3.447932         94.41
     3.440496          2.28
     3.439993         89.21
     3.434430        112.77
     3.433926         97.84
     3.410348          0.02
     3.394331         13.07
     3.389210          0.01
     3.379232          0.15
     3.370581          4.02
     3.332196         56.67
     3.331092        117.55
     3.324577         67.33
     3.321862         10.30
     3.320856        115.27
     3.309474         66.00
     3.298053         35.83
     3.297102         51.11
     3.295531         54.24
     3.285339         46.97
     3.279346         19.76
     3.277411         35.94
     3.275471         18.22
     3.266284         21.16
     3.265555         26.62
     3.262557          1.52
     3.259773         11.96
     3.258797         16.80
     3.255473          0.00
     3.247532         70.01
     3.236785        106.42
     3.219875          0.00
     3.209767          0.03
     3.209256          0.16
     3.196026          0.94
     3.186261          1.64
     3.181062         87.49
     3.177175         74.93
     3.163207         34.98
     3.153777          8.01
     3.152410         14.05
     3.150654         18.06
     3.139701         35.98
     3.139577          0.21
     3.138217         11.23
     3.071269         33.75
     3.068978         10.43
     3.052149          0.70
     3.042696         33.09
     3.041651         20.85
     3.036742         22.89
     3.034089          1.19
     3.028288          0.35
     3.018317          2.01
     3.014655          3.03
     3.014169          1.84
     3.010843          3.96
     3.005710          0.28
     3.004696          7.69
     3.001909          0.00
     2.999489          5.12
     2.991310          0.04
     2.961573          0.61
     2.959661         63.32
     2.954601         11.75
     2.954236         41.33
     2.953558         21.78
     2.949785          5.30
     2.932616          3.42
     2.931997          0.58
     2.922421         14.19
     2.912408         20.92
     2.905333          8.13
     2.902236         11.56
     2.895588          0.00
     2.893316          0.03
     2.892859         37.34
     2.890535         39.61
     2.887120          0.81
     2.885073          0.00
     2.883826          3.02
     2.883066          0.06
     2.882947          1.53
     2.882558          0.77
     2.880769         25.88
     2.857777          0.11
     2.849503          0.07
     2.848985          5.22
     2.847757          0.00
     2.847310          1.10
     2.842347          0.00
     2.840865          2.52
     2.825291          5.52
     2.824850          2.28
     2.820836          0.19
     2.816869          0.27
     2.813317          0.31
     2.805702          2.08
     2.795692          1.69
     2.794975          5.67
     2.792365         12.23
     2.791599         32.24
     2.788664          0.01
     2.786328        279.37
     2.784319         34.82
     2.783738         15.07
     2.778435          2.01
     2.777065          3.39
     2.767812          0.08
     2.766264          0.03
     2.765828          1.21
     2.765642          2.11
     2.764180          0.14
     2.762434          1.80
     2.760820          4.25
     2.758271          3.60
     2.758170          0.99
     2.750637          5.84
     2.749815          2.65
     2.748394          2.06
     2.745844          5.68
     2.745659          0.08
     2.741785          7.37
     2.741339          0.04
     2.741031          5.62
     2.740351          0.02
     2.726094          4.11
     2.703227         12.87
     2.699468         20.47
     2.697107          2.85
     2.695983          3.72
     2.689303          1.81
     2.686753          0.18
     2.685857          8.42
     2.685771          0.10
     2.685672          0.13
     2.682604         16.23
     2.680982          6.13
     2.677438          2.02
     2.665379         22.06
     2.658011         17.40
     2.657166          1.87
     2.654673         43.27
     2.653190          0.68
     2.650130         12.42
     2.644879          1.70
     2.644062          0.19
     2.642512          3.77
     2.638386          0.91
     2.638104          9.99
     2.637527          9.18
     2.636813          1.06
     2.632581          5.34
     2.623208          0.00
     2.615578         28.66
     2.614819         14.17
     2.614578          2.73
     2.606229          0.69
     2.605592          0.60
     2.604201         11.09
     2.604174          2.93
     2.598227          0.67
     2.597833          6.95
     2.595994          0.46
     2.591709          0.05
     2.589271          3.27
     2.588623          0.04
     2.588060          6.45
     2.584940          0.01
     2.582860         13.44
     2.581018         18.49
     2.572718          0.43
     2.567451          8.85
     2.566298          1.49
     2.559057          0.24
     2.557834          4.53
     2.555340          8.74
     2.550599         11.59
     2.550174          1.11
     2.546921          0.10
     2.546826          0.89
     2.545749          1.87
     2.539123          0.80
     2.538111          0.96
     2.534759         11.94
     2.531926         12.19
     2.527935         13.11
     2.523604          3.70
     2.517616          1.47
     2.517010          2.12
     2.515650          8.82
     2.509084          5.07
     2.498885          0.09
     2.495854          3.75
     2.494188          3.74
     2.491828          2.49
     2.491397          2.62
     2.489987          0.13
     2.487688          3.28
     2.485939          2.81
     2.483746          0.13
     2.482420          1.69
     2.480931          2.39
     2.479798          8.59
     2.477013          3.20
     2.472781          0.84
     2.471515          4.45
     2.462585          5.24
     2.459043          0.91
     2.456133          5.10
     2.454181          0.25
     2.451879          1.54
     2.449564          0.05
     2.448652          5.23
     2.448211          2.16
     2.448014         17.75
     2.446918         22.48
     2.442022          0.76
     2.441605          0.74
     2.441094          0.09
     2.439473          0.05
     2.435564          0.02
     2.433902          5.34
     2.433385         11.85
     2.428749          0.30
     2.428307         14.14
     2.428105          0.52
     2.411258          2.24
     2.406917          1.99
     2.402393          0.23
     2.400156          0.15
     2.398250          2.99
     2.396655          0.13
     2.396145          1.23
     2.395504          1.17
     2.389432          2.87
     2.386242          0.03
     2.385441          3.56
     2.385244          3.13
     2.374990          0.73
     2.371812         24.05
     2.371513         11.94
     2.367668          3.47
     2.362308          0.92
     2.358353          0.19
     2.354325          0.69
     2.352050          0.07
     2.351693          0.12
     2.348384          1.30
     2.348124          7.12
     2.346135          5.59
     2.344348          0.05
     2.341519          0.02
     2.334961         16.09
     2.334491         11.01
     2.333136          0.09
     2.329483         19.02
     2.329246          2.83
     2.328788          1.10
     2.323966          0.33
     2.322191          0.29
     2.317831          2.86
     2.316468          3.25
     2.313313         15.67
     2.310521          6.81
     2.309958          0.18
     2.309010          6.84
     2.308847          0.16
     2.307666         22.88
     2.307171          0.38
     2.306006          5.67
     2.304070          2.33
     2.303634          6.10
     2.303452         12.89
     2.302820          7.76
     2.301734          1.32
     2.301459          3.58
     2.300605         15.45
     2.300044         10.35
     2.298489          8.88
     2.297728         14.94
     2.295378          0.19
     2.294603          0.87
     2.293479          0.38
     2.291310          3.93
     2.290961          3.26
     2.289585          0.03
     2.287739          0.63
     2.287500          7.51
     2.287301          1.64
     2.286564          2.36
     2.283146          9.32
     2.281926          0.86
     2.281484          0.58
     2.281463          0.10
     2.281134          0.62
     2.279988          7.17
     2.279135          0.06
     2.277415          2.80
     2.276508          8.32
     2.273511          2.30
     2.271900          0.21
     2.271478          4.65
     2.270610          0.05
     2.269729         14.41
     2.268294          1.29
     2.264767          3.77
     2.264741          4.66
     2.263072          0.00
     2.262733          0.93
     2.258232         15.77
     2.250547         14.01
     2.249991          2.77
     2.249417          5.84
     2.246672          3.16
     2.241846          0.73
     2.238805          0.44
     2.238196          3.90
     2.235610          0.18
     2.232279          0.70
     2.231406          0.30
     2.231230          3.03
     2.228880          0.16
     2.226496          0.36
     2.226248          1.85
     2.225713          0.00
     2.224901          0.43
     2.218757          0.00
     2.217370          0.72
     2.216525          0.00
     2.216449          0.15
     2.216321          0.02
     2.215212          0.00
     2.214575          4.75
     2.214530          2.43
     2.208884          0.62
     2.208411          0.03
     2.208283          0.87
     2.206316         13.60
     2.205794          0.07
     2.204256          6.71
     2.201994          0.00
     2.199150          0.77
     2.198068          7.56
     2.197370          0.44
     2.196474          2.92
     2.194497          4.30
     2.179301         10.99
     2.177088          1.13
     2.176536          2.56
     2.176194          0.19
     2.174970          1.39
     2.174119          0.00
     2.173516          0.00
     2.172620         11.14
     2.172573          6.32
     2.169438          0.09
     2.168526          0.06
     2.168047          0.03
     2.161246          7.56
     2.161188          0.00
     2.160619          1.10
     2.158011          2.48
     2.156383          4.56
     2.156009          0.04
     2.154843          0.02
     2.153198          0.04
     2.151115         14.78
     2.150931          0.72
     2.150002          0.29
     2.148927          0.55
     2.148376         16.57
     2.147658          0.02
     2.146719          0.23
     2.146429          5.26
     2.141802         44.82
     2.140635          0.24
     2.139388          0.41
     2.138473          0.40
     2.137724          4.15
##############################################################################
###                            Comments                                    ###
##############################################################################
###   Diffraction pattern calculated by Match!. 
###   I/Ic calculated by Match!. 
##############################################################################


