##############################################################################
###               Crystal structure data exported by Match!                ###
##############################################################################
###                           Data published by:                           ###
###                                                                        ###
###               COD (Crystallography Open Database)
##############################################################################
data_9006293
_citation_journal_full    'Physics and Chemistry of Minerals'
_citation_journal_volume  '21'
_citation_page_first  '269'
_citation_page_last   '284'
_citation_year  '1994'
_citation_title  'Framework silica structures generated using simulated annealingwith a potential energy function based on an H6Si2O7 moleculeSample: 10'
loop_
_publ_author_name
  'Boisen M. B.'
  'Gibbs G. V.'
  'Bukowinski M. S. T.'
_chemical_formula_sum  'O2 Si'
_chemical_name_common  'Silica'
_symmetry_space_group_name_H-M 'P 1'
_space_group_IT_number 1
_space_group_crystal_system 'triclinic'
loop_
_symmetry_equiv_pos_as_xyz
   'x, y, z'
_cell_length_a        4.84520
_cell_length_b        6.98520
_cell_length_c        7.02370
_cell_angle_alpha   113.8110
_cell_angle_beta     77.9510
_cell_angle_gamma    76.7010
loop_
_atom_site_label
_atom_site_fract_x
_atom_site_fract_y
_atom_site_fract_z
_atom_site_occupancy
_atom_site_B_iso_or_equiv
si      0.567   0.530   0.144    1.00000    1.000
si      0.182   0.636   0.570    1.00000    1.000
si      0.178   0.282   0.161    1.00000    1.000
si      0.553   0.772   0.871    1.00000    1.000
o      0.681   0.650   0.004    1.00000    1.000
o      0.178   0.389   0.416    1.00000    1.000
o      0.387   0.372   0.030    1.00000    1.000
o      0.302   0.013   0.049    1.00000    1.000
o      0.393   0.623   0.719    1.00000    1.000
o      0.834   0.800   0.722    1.00000    1.000
o      0.336   0.712   0.395    1.00000    1.000
o      0.842   0.368   0.163    1.00000    1.000
_cell_measurement_wavelength    1.541874
_cell_measurement_radiation   'x-rays'
_exptl_crystal_density_diffrn    2.004000
loop_
_pd_peak_d_spacing
_pd_peak_intensity
     6.045907        298.20
     5.983338        955.99
     5.867304       1000.00
     4.436459        241.94
     4.373849         71.52
     4.347612        317.64
     3.565796        165.56
     3.522087        255.19
     3.512259        132.13
     3.502159        150.23
     3.432411         65.98
     3.398045         86.93
     3.109481         68.00
     3.083018        106.73
     3.022954         56.44
     3.020572         29.81
     3.018984         61.89
     3.018732         18.52
     2.992954         84.89
     2.991669         31.43
     2.933652         32.97
     2.502046         10.77
     2.471837          0.40
     2.467938         68.25
     2.464930        169.72
     2.461175         27.92
     2.429525         33.70
     2.368718         17.63
     2.356580          2.85
     2.348513         28.60
     2.330839         64.52
     2.295085         28.59
     2.284726          9.69
     2.262089         16.20
     2.254802          9.41
     2.253481         41.28
     2.235920          4.26
     2.233290          0.97
     2.218230         13.55
     2.217444          4.89
     2.186924          1.44
     2.178256          1.12
     2.173806          7.00
     2.154284          1.95
     2.125995          3.11
     2.118575         29.21
     2.106793         31.66
     2.092153         11.90
     2.085770          3.53
     2.065115         16.10
     2.064187         24.44
     2.048031         19.58
     2.045072         23.21
     2.041219         21.60
     2.015302         14.48
     1.994446         21.26
     1.955768         10.77
     1.912215         28.66
     1.909883          7.81
     1.886099          9.70
     1.879564          2.87
     1.876144          0.58
     1.841245         10.24
     1.839454          7.10
     1.838603          2.41
     1.832199         27.70
     1.825645          0.22
     1.821386          4.66
     1.814820          1.92
     1.810783          5.91
     1.800066         19.09
     1.782898         10.11
     1.779294          1.35
     1.774319          1.41
     1.766182         33.67
     1.761044         15.55
     1.756129         35.64
     1.751079          8.29
     1.724619          5.60
     1.722801          1.49
     1.716223          9.57
     1.716205          9.25
     1.710276          0.10
     1.709412         11.41
     1.702055          1.74
     1.699023          1.44
     1.693126          1.97
     1.686983          2.55
     1.686430          0.68
     1.683406          2.94
     1.672537          1.60
     1.671223          1.81
     1.665081          1.63
     1.645517          7.48
     1.637795          0.98
     1.634709          3.71
     1.625985         10.75
     1.618800         16.32
     1.614550          0.88
     1.606461          0.74
     1.604956          9.26
     1.597477          2.35
     1.583208         12.74
     1.574491         16.03
     1.569806          0.56
     1.563942          3.89
     1.561374          4.58
     1.559228         19.59
     1.554741          4.63
     1.553700          5.28
     1.552725         12.78
     1.552042          6.24
     1.550152          4.37
     1.541509          3.03
     1.511871          8.30
     1.511477          5.48
     1.510286          3.72
     1.510257         11.38
     1.509492          7.33
     1.509366          2.34
     1.508998         17.26
     1.496477          0.76
     1.496281         10.34
     1.495835          2.81
     1.491682          6.66
     1.486461          1.10
     1.478820          9.42
     1.478576          5.79
     1.475802          2.62
     1.473068          1.08
     1.472500         11.85
     1.471767          3.55
     1.467465         10.99
     1.466826         10.98
     1.458665          0.05
     1.457950          2.58
     1.455690          1.85
     1.453970          6.28
     1.449204         19.35
     1.442789          1.78
     1.439346         10.02
     1.434343          6.30
     1.428660          9.97
     1.422889          2.35
     1.421535         12.95
     1.418079         23.96
     1.415737          6.83
     1.413180          5.70
     1.413146          1.21
     1.409427          1.28
     1.407533         16.37
     1.405901          0.20
     1.399326          2.05
     1.399251          1.64
     1.398167         16.39
     1.396251          2.06
     1.394390          7.78
     1.392926          4.05
     1.389056         19.13
     1.388304         16.17
     1.386462          1.58
     1.386198          9.48
     1.385039          0.72
     1.371487          0.71
     1.369412          1.40
     1.368232          3.46
     1.363108          0.81
     1.358683         19.45
     1.354377          4.03
     1.354161          4.02
     1.353804          0.36
     1.352030          4.71
     1.347288          1.36
     1.346941          4.97
     1.335825          0.30
     1.330849          3.31
     1.328955          8.11
     1.323812          3.58
     1.319921          6.23
     1.313916          6.13
     1.312315          2.47
     1.312263          0.65
     1.309078          2.42
     1.308302          3.42
     1.307724          9.08
     1.307529         18.70
     1.306577          6.29
     1.305743          2.26
     1.305682         11.22
     1.302736          2.55
     1.302367          1.62
     1.302160          6.92
     1.299830         10.88
     1.297237          0.81
     1.296990          1.11
     1.289914          6.93
     1.287137          2.11
     1.284560          5.78
     1.282001          1.08
     1.279109          3.33
     1.276784         10.11
     1.275879          2.10
     1.273305          3.39
     1.269270          2.45
     1.263241          5.35
     1.262994          7.31
     1.260468         17.79
     1.259172          4.80
     1.255336          1.65
     1.253525          0.02
     1.253068          6.26
     1.252319          0.21
     1.251023          7.34
     1.250578          7.62
     1.249006          1.72
     1.248390          9.09
     1.246961          2.72
     1.244791          2.45
     1.239257          6.80
     1.237994          4.13
     1.235918          4.79
     1.234456          4.23
     1.233969          1.33
     1.233326         12.83
     1.232527          5.71
     1.232465          4.03
     1.230588          3.76
     1.230258          0.55
     1.215128          0.53
     1.214763          0.80
     1.214505          5.68
     1.209181          2.33
     1.206010          5.31
     1.202370          5.91
     1.200982          5.36
     1.200401          5.94
     1.199679          0.10
     1.199588          5.17
     1.196668          0.75
     1.196079          1.02
     1.188599          3.58
     1.184359          1.19
     1.184234          0.26
     1.179942          1.43
     1.178290          2.63
     1.174256          5.20
     1.174029          1.15
     1.173461          1.43
     1.173392          0.14
     1.172176          1.40
     1.170753          1.84
     1.170014          1.05
     1.169370          0.13
     1.167405          3.09
     1.167386          0.43
     1.167309          4.87
     1.166439          3.77
     1.165419          2.71
     1.163707          3.82
     1.163076          0.85
     1.161866          0.67
     1.161597          1.49
     1.160467          4.73
     1.160419          5.10
     1.158633          4.93
     1.158389          2.46
     1.157249          7.54
     1.156844          8.86
     1.156791          1.35
     1.155522          5.10
     1.154629          0.54
     1.153360          0.16
     1.153292          1.07
     1.152894          0.19
     1.151341          1.67
     1.151077          1.19
     1.150094          1.85
     1.149496          5.56
     1.149244          2.97
     1.148160          1.16
     1.147542          0.77
     1.146627          1.48
     1.146185          3.18
     1.145340          3.17
     1.144137          2.60
     1.142363          3.89
     1.142151          1.99
     1.140792          2.29
     1.139582          0.55
     1.139289          1.75
     1.138882          0.97
     1.132682          3.35
     1.131501          5.09
     1.131045          0.18
     1.130064          2.68
     1.127401          5.15
     1.126741          2.92
     1.125929          5.69
     1.123138          2.37
     1.120578          0.48
     1.117960          0.36
     1.117597          2.67
     1.116924          4.46
     1.116645          2.00
     1.113495          0.02
     1.113098          2.51
     1.112209          1.24
     1.110359          1.87
     1.110081          0.75
     1.110001          1.68
     1.109115          1.08
     1.108746          1.71
     1.108722          0.77
     1.106599          0.98
     1.104502          3.14
     1.102413          0.43
     1.093462          3.21
     1.092955          1.72
     1.092067          1.82
     1.091918          0.99
     1.090210          2.62
     1.089762          3.67
     1.089128          1.53
     1.089095          3.23
     1.086981          0.01
     1.086903          0.24
     1.086701          0.02
     1.085948          3.02
     1.084582          0.64
     1.081253          2.75
     1.080287          4.12
     1.079404          0.81
     1.078461          0.66
     1.077674          2.14
     1.077142          1.38
     1.073807          2.09
     1.073567          0.34
     1.069955          2.94
     1.069423          1.12
     1.068850          1.89
     1.068749          2.16
     1.067807          1.17
     1.067703          1.10
     1.067172          1.81
     1.065118          1.87
     1.064066          0.86
     1.063936          0.39
     1.063517          2.47
     1.062997          0.97
     1.061863          0.47
     1.059287          0.31
     1.056481          3.81
     1.056215          0.39
     1.055514          0.65
     1.054980          1.36
     1.053649          0.39
     1.053397          0.16
     1.052771          1.33
     1.052428          1.50
     1.049701          0.13
     1.049624          1.37
     1.047022          2.14
     1.046402          1.27
     1.046077          1.71
     1.044071          0.10
     1.042885          4.37
     1.042596          0.59
     1.042368          0.36
     1.042254          1.38
     1.041417          0.54
     1.041402          0.21
     1.039312          0.59
     1.039201          1.08
     1.038336          1.63
     1.037141          3.36
     1.036494          4.33
     1.036322          2.46
     1.035777          0.45
     1.035554          0.25
     1.033326          1.54
     1.032879          3.37
     1.032558          1.19
     1.032457          0.04
     1.032093          3.23
     1.031543          1.14
     1.030822          1.97
     1.030701          1.20
     1.030588          0.20
     1.029726          0.12
     1.027753          0.40
     1.027673          0.10
     1.024016          1.46
     1.022536          0.77
     1.021046          2.70
     1.020609          0.78
     1.018413          0.27
     1.017466          0.06
     1.015483          0.57
     1.013527          0.38
     1.012963          0.06
     1.012190          0.53
     1.011365          0.60
     1.010741          0.26
     1.010632          0.81
     1.009458          2.88
     1.009184          2.83
     1.008326          0.67
     1.007651          1.48
     1.007291          3.88
     1.006857          1.26
##############################################################################
###                            Comments                                    ###
##############################################################################
###   Diffraction pattern calculated by Match!. 
###   I/Ic calculated by Match!. 
###   Space group has been derived from given symmetry operations. 
##############################################################################


