##############################################################################
###               Crystal structure data exported by Match!                ###
##############################################################################
###                           Data published by:                           ###
###                                                                        ###
###               COD (Crystallography Open Database)
##############################################################################
data_9013582
_citation_journal_full    'American Mineralogist'
_citation_journal_volume  '94'
_citation_page_first  '451'
_citation_page_last   '460'
_citation_year  '2009'
_citation_title  'Molecular conformation and anion configuration variations for As4S4 andAs4Se4 in an anion-substituted solid solution Locality: synthetic Note:S1Se1-17'
loop_
_publ_author_name
  'Kyono A.'
_chemical_formula_sum  'As S0.9 Se0.1'
_chemical_name_mineral  'Realgar'
_symmetry_space_group_name_H-M 'P 1 21/n 1'
_space_group_IT_number 14
_space_group_crystal_system 'monoclinic'
loop_
_symmetry_equiv_pos_as_xyz
   'x, y, z'
   '-x+0.5, y+0.5, -z+0.5'
   '-x, -y, -z'
   'x+0.5, -y+0.5, z+0.5'
_cell_length_a        9.38050
_cell_length_b       13.60210
_cell_length_c        6.61970
_cell_angle_alpha    90.0000
_cell_angle_beta    106.4420
_cell_angle_gamma    90.0000
loop_
_atom_site_label
_atom_site_fract_x
_atom_site_fract_y
_atom_site_fract_z
_atom_site_occupancy
_atom_site_B_iso_or_equiv
as      0.121   -0.021   0.763    1.00000    2.169
as      0.424   0.139   0.857    1.00000    2.074
as      0.321   0.127   0.177    1.00000    2.086
as      0.040   0.161   0.713    1.00000    2.306
s      0.345   -0.007   0.699    0.88500    2.431
se      0.345   -0.007   0.699    0.11500    2.431
s      0.214   -0.024   0.119    0.87100    2.250
se      0.214   -0.024   0.119    0.12900    2.250
s      0.239   0.227   0.638    0.93400    2.621
se      0.239   0.227   0.638    0.06600    2.621
s      0.106   0.212   0.052    0.90900    2.542
se      0.106   0.212   0.052    0.09000    2.542
_cell_measurement_wavelength    1.541874
_cell_measurement_radiation   'x-rays'
_exptl_crystal_density_diffrn    3.662000
loop_
_pd_peak_d_spacing
_pd_peak_intensity
     7.503945         75.21
     6.801050         69.05
     6.057630        403.86
     5.753137        471.73
     5.533681        260.70
     5.425352       1000.00
     4.641009        106.26
     4.609110         29.88
     4.523480         11.16
     4.498450          3.95
     4.365303          0.00
     4.270945         35.20
     4.088999        200.19
     4.048937         25.60
     3.815461         35.51
     3.751972         86.09
     3.689760         53.33
     3.629868          6.04
     3.626817         84.30
     3.400525          0.37
     3.232262         19.54
     3.207997         25.50
     3.193391        331.13
     3.180898        293.90
     3.174499        428.40
     3.171008         19.15
     3.115157         13.18
     3.091424         78.28
     3.067648        360.37
     3.028815          2.47
     2.997637        194.58
     2.992489         78.77
     2.969770        233.40
     2.965255          0.08
     2.956408        163.72
     2.940352        508.98
     2.928630         17.80
     2.876568        106.67
     2.796349        140.38
     2.766840         17.77
     2.744031        132.16
     2.736382        447.22
     2.712676        113.60
     2.703580        166.04
     2.668715          0.87
     2.664229         68.28
     2.647306          6.97
     2.603983        169.40
     2.600469         32.22
     2.556334         11.27
     2.540750         27.96
     2.528914        138.63
     2.518555          9.77
     2.501315        131.12
     2.500543          1.64
     2.481654        162.04
     2.456428         93.90
     2.417326         55.67
     2.407180         93.08
     2.368607         72.52
     2.356693          1.23
     2.353601         16.43
     2.342782          0.02
     2.327853          9.77
     2.320504          4.28
     2.310350         30.72
     2.304866          0.83
     2.304555         14.11
     2.297020          0.03
     2.277774          0.08
     2.272174          1.36
     2.267017        141.55
     2.261740          0.53
     2.249230         50.37
     2.249225         20.97
     2.238299        100.90
     2.219091         23.19
     2.211582         22.31
     2.203830        129.23
     2.198303        101.78
     2.182652         34.19
     2.175461         66.83
     2.159819          1.95
     2.143653        100.59
     2.142331          3.38
     2.138673        121.45
     2.135472         47.62
     2.134996          5.84
     2.123203         43.28
     2.117518         39.78
     2.099397          0.01
     2.096506          0.37
     2.091173         27.44
     2.088927          1.06
     2.078477          1.38
     2.065683          0.02
     2.063521         51.22
     2.054408          4.72
     2.052234         16.43
     2.044499         42.83
     2.035367          3.52
     2.034265          4.87
     2.024469         24.57
     2.023903          0.22
     2.020757          1.20
     2.019210         24.11
     2.014921         22.73
     2.004090         11.41
     1.997322         12.15
     1.991238         48.23
     1.982090         21.26
     1.954147          7.16
     1.941268          3.20
     1.937969          0.49
     1.936992         35.84
     1.935698          5.61
     1.933397          0.65
     1.926957          3.08
     1.921795         17.51
     1.917712          4.53
     1.907730          9.59
     1.905935          5.06
     1.899362          9.34
     1.877340         20.38
     1.876100         18.29
     1.875986          7.63
     1.869633          2.61
     1.868778         50.28
     1.866713         97.62
     1.861382        131.23
     1.858505         26.79
     1.858081          9.24
     1.852168         15.20
     1.850291          2.95
     1.849403          5.66
     1.844880         80.00
     1.844560          4.15
     1.826642          0.07
     1.823187        117.01
     1.823164          0.13
     1.814934          4.66
     1.813409         18.94
     1.808550        121.52
     1.808451         15.89
     1.803576         11.19
     1.796780         31.24
     1.793855         77.39
     1.790538          4.93
     1.784576         25.62
     1.783846          0.40
     1.783839          3.07
     1.783475          2.49
     1.773439         50.09
     1.771855         17.82
     1.769858         13.25
     1.758417         17.53
     1.757814          0.90
     1.751470         20.46
     1.739527         17.95
     1.739189          6.86
     1.736194         55.83
     1.733555         23.04
     1.733465          4.03
     1.721188         15.01
     1.712427        120.82
     1.701197         63.59
     1.700263         47.29
     1.694311          6.22
     1.693713          0.76
     1.688721         50.25
     1.685896        128.22
     1.683734         33.72
     1.681280         94.93
     1.675158          3.49
     1.674581          5.71
     1.672487          4.07
     1.672186         28.89
     1.670690         16.96
     1.670398         31.89
     1.669252          0.08
     1.665966         31.20
     1.657320          4.54
     1.650560         28.21
     1.642682         61.73
     1.642389          2.77
     1.641541         18.98
     1.638540          4.76
     1.637002          5.53
     1.635509         18.36
     1.632898          7.34
     1.630759         18.25
     1.630428          8.84
     1.627770         37.31
     1.621386          0.00
     1.620523          0.20
     1.618840          0.76
     1.616131         11.90
     1.615397          5.35
     1.614856          0.68
     1.604385         16.75
     1.604124         42.58
     1.603998          2.36
     1.603594         12.41
     1.598704          0.02
     1.596695          5.71
     1.595186          1.69
     1.591931          0.84
     1.590449          7.66
     1.590444          7.02
     1.590186          1.60
     1.588610          5.56
     1.587250          0.29
     1.586625         17.46
     1.585504         53.10
     1.580511          0.24
     1.580209         29.45
     1.580194          0.00
     1.576552          6.04
     1.571671         16.56
     1.571341          0.00
     1.571173          4.80
     1.565940         15.87
     1.560198          7.52
     1.557578         22.45
     1.551364          0.02
     1.550985          0.00
     1.550811         26.22
     1.547003          1.76
     1.546197          2.03
     1.545712          5.63
     1.545560          8.19
     1.544443          6.61
     1.536370          4.77
     1.534246          4.35
     1.533824          0.45
     1.526662          0.02
     1.524164         23.07
     1.523982         15.71
     1.521951         48.24
     1.521701          5.66
     1.521249          2.10
     1.514407         44.00
     1.512486          0.16
     1.511549          3.04
     1.511281          5.04
     1.507827         20.54
     1.507627         43.79
     1.505108         25.57
     1.500789          0.84
     1.500572          6.19
     1.499483          1.11
     1.498819         19.29
     1.498607          5.01
     1.498104          5.17
     1.496245          1.61
     1.494580          2.94
     1.490461          4.56
     1.490454          0.33
     1.487117          5.69
     1.485555         14.27
     1.484885         15.32
     1.483598         31.81
     1.482627          0.23
     1.480682          0.20
     1.479749          2.94
     1.479087          6.82
     1.478204         10.08
     1.476442         39.45
     1.474528          1.39
     1.470418          0.82
     1.470262          1.98
     1.470176         66.41
     1.467327          0.04
     1.466394          1.69
     1.464315          5.65
     1.462902          7.87
     1.459127         45.90
     1.458728         16.74
     1.457811         10.36
     1.457512          6.86
     1.455101          0.25
     1.452938         14.63
     1.449933         20.43
     1.447422          6.39
     1.446292         13.85
     1.445353          0.71
     1.439697          0.76
     1.438284          7.19
     1.436402          1.78
     1.436109          2.15
     1.432650         39.52
     1.431333         18.78
     1.425373          0.93
     1.423648          0.05
     1.421279          0.54
     1.419082          3.36
     1.419060          0.06
     1.418659          7.89
     1.417669         11.86
     1.411137         15.64
     1.409386          1.14
     1.409206         11.31
     1.407527          3.80
     1.400134          2.56
     1.400102          0.32
     1.398559          5.16
     1.398494          2.97
     1.398175          2.11
     1.398034         11.09
     1.396732         10.62
     1.396208          5.41
     1.388974          0.28
     1.388630          0.12
     1.383420          1.24
     1.381035          0.12
     1.379310          0.07
     1.377868          0.91
     1.377567          0.06
     1.375231          2.05
     1.375152         26.61
     1.374651          1.60
     1.374173         26.48
     1.373351          2.81
     1.372273          7.77
     1.372016          0.59
     1.371224          0.42
     1.370959          4.93
     1.368191          4.55
     1.367907          3.16
     1.367528          0.43
     1.366661          0.86
     1.364587          2.44
     1.363000          2.13
     1.360210          1.35
     1.356338          5.40
     1.355738          0.16
     1.354298          0.15
     1.354240          0.19
     1.352334         11.48
     1.351790          2.66
     1.349687          1.08
     1.349646          0.21
     1.347616          2.91
     1.346189          2.17
     1.344926          0.55
     1.341306          2.27
     1.340841          0.45
     1.337772          0.02
     1.337334          1.34
     1.336090         13.40
     1.335364          5.14
     1.334543          3.30
     1.334357          0.55
     1.332114         28.81
     1.331305          0.01
     1.330029         12.26
     1.328975          0.03
     1.328202          4.77
     1.327163          3.96
     1.325481          4.52
     1.325459          0.01
     1.323653          0.30
     1.323197         10.99
     1.323085          2.52
     1.320260          0.35
     1.320112          0.18
     1.319600          1.22
     1.317712         10.19
     1.317485          1.13
     1.315716         19.14
     1.315572          1.15
     1.315280          0.04
     1.313208          0.05
     1.310344          0.67
     1.309985          0.00
     1.309682          2.35
     1.308821          4.80
     1.308511          0.09
     1.304698          2.61
     1.304586          4.19
     1.303952          0.05
     1.303653          2.36
     1.303541          0.00
     1.303265          1.34
     1.301991          4.75
     1.300589          1.45
     1.300235          2.97
     1.299545          8.75
     1.297861          0.77
     1.297440          0.01
     1.296522          3.64
     1.294245          0.33
     1.287220          3.91
     1.286894          0.11
     1.286340          1.93
     1.286054          1.74
     1.285996          4.63
     1.282441          9.88
     1.281173         13.12
     1.280962          1.09
     1.279572          0.17
     1.279038          0.66
     1.278167          0.00
     1.275686          2.62
     1.274637          0.03
     1.274330          0.55
     1.271820          1.09
     1.270868          4.20
     1.270375          2.14
     1.269480          4.61
     1.269356          1.75
     1.265155          0.14
     1.264848         10.32
     1.264457          0.05
     1.264303          0.98
     1.263987          0.23
     1.263813          0.88
     1.263557          0.88
     1.262917          8.85
     1.259857          0.03
     1.259277          8.09
     1.258510          0.23
     1.258241          1.64
     1.257985          0.75
     1.257632          0.10
     1.257447          0.62
     1.255426          1.30
     1.255371          0.49
     1.254453          0.03
     1.250657          0.05
     1.250272          1.28
     1.249004          0.33
     1.248754          2.25
     1.248230          1.16
     1.247926          1.38
     1.247749          2.39
     1.247374          8.71
     1.246598          0.46
     1.246411          1.32
     1.243455          1.95
     1.242961          0.74
     1.242329          3.24
     1.242208          1.15
     1.241962          0.48
     1.241631         14.96
     1.240827          0.00
     1.239372          0.29
     1.238749          1.07
     1.238139          0.32
     1.237994          9.15
     1.236549          2.57
     1.236520          0.06
     1.235822          7.49
     1.235701          1.24
     1.235214          0.81
     1.233732          0.02
     1.230218          6.87
     1.229920          0.67
     1.229271          0.01
     1.228214          5.00
     1.227070          2.43
     1.225038          3.45
     1.223246         10.79
     1.223238          0.08
     1.222753          0.00
     1.222467          0.08
     1.222417         16.21
     1.222171          3.52
     1.219969          0.84
     1.217218          0.45
     1.217176          1.78
     1.216547          0.27
     1.214409          7.70
     1.213748          3.62
     1.211983          0.30
     1.211569          3.27
     1.211526          0.03
     1.210808          0.01
     1.209956          9.47
     1.208939          1.31
     1.208663          0.89
     1.207201          0.67
     1.206749          6.58
     1.206039          0.01
     1.205177          6.71
     1.203947          3.87
     1.203590          1.66
     1.202597          2.16
     1.202262          0.10
     1.198733          3.25
     1.195626          0.13
     1.195303          5.96
     1.194488          0.09
     1.194406          1.46
     1.194320          4.56
     1.193724          0.01
     1.193396          9.99
     1.193185          1.23
     1.192749          0.26
##############################################################################
###                            Comments                                    ###
##############################################################################
###   Diffraction pattern calculated by Match!. 
###   I/Ic calculated by Match!. 
##############################################################################


