##############################################################################
###               Crystal structure data exported by Match!                ###
##############################################################################
###                           Data published by:                           ###
###                                                                        ###
###               COD (Crystallography Open Database)
##############################################################################
data_9012342
_citation_journal_full    'Zeitschrift fur Anorganische und Allgemeine Chemie'
_citation_journal_volume  '575'
_citation_page_first  '145'
_citation_page_last   '153'
_citation_year  '1989'
_citation_title  'Terlinguait Hg4O2Cl2 - ein mineral mit ungewohnlichen Hg3-baueinheiten'
loop_
_publ_author_name
  'Brodersen K.'
  'Gobel G.'
  'Liehr G.'
_chemical_formula_sum  'Cl Hg2 O'
_chemical_name_mineral  'Terlinguaite'
_symmetry_space_group_name_H-M 'C 1 2/c 1'
_space_group_IT_number 15
_space_group_crystal_system 'monoclinic'
loop_
_symmetry_equiv_pos_as_xyz
   'x, y, z'
   'x+0.5, y+0.5, z'
   '-x, y, -z+0.5'
   '-x+0.5, y+0.5, -z+0.5'
   '-x, -y, -z'
   '-x+0.5, -y+0.5, -z'
   'x, -y, z+0.5'
   'x+0.5, -y+0.5, z+0.5'
_cell_length_a       11.95300
_cell_length_b        5.90400
_cell_length_c        9.46600
_cell_angle_alpha    90.0000
_cell_angle_beta    105.5900
_cell_angle_gamma    90.0000
loop_
_atom_site_label
_atom_site_fract_x
_atom_site_fract_y
_atom_site_fract_z
_atom_site_occupancy
_atom_site_B_iso_or_equiv
hg      0.250   0.250   0.000    1.00000    1.000
hg      0.000   0.591   0.250    1.00000    1.000
hg      -0.049   0.194   0.104    1.00000    1.000
o      0.079   0.176   0.939    1.00000    1.000
cl      0.194   0.293   0.645    1.00000    1.000
_cell_measurement_wavelength    1.541874
_cell_measurement_radiation   'x-rays'
_exptl_crystal_density_diffrn    9.345000
loop_
_pd_peak_d_spacing
_pd_peak_intensity
     5.756622        648.53
     5.253524         11.52
     4.814536          0.12
     4.558870         60.56
     4.328164        206.62
     4.159073        856.96
     3.673407        126.04
     3.274680        889.74
     3.251475        313.49
     3.217698         17.42
     3.181859         15.23
     2.962022         20.46
     2.952000        400.38
     2.878311        414.60
     2.840098        271.90
     2.808471        348.09
     2.796638        250.53
     2.782811         25.56
     2.626762         10.74
     2.610705        294.45
     2.509727        398.37
     2.501146       1000.00
     2.477880        253.03
     2.445583         72.92
     2.407268         53.76
     2.387578        147.43
     2.346126        129.84
     2.279435          0.01
     2.215574          6.04
     2.191521        114.30
     2.183308        144.99
     2.164082         15.96
     2.160668          1.23
     2.145262         45.58
     2.120147          3.28
     2.117552          2.81
     2.098848        219.00
     2.096093        122.96
     2.079537          3.97
     2.060832         53.61
     2.030225          1.70
     2.005039         48.46
     2.003304         64.52
     1.996299         53.30
     1.980605         45.27
     1.967766        282.68
     1.947720          2.40
     1.939864         86.80
     1.931781          2.13
     1.918874          4.48
     1.915130         24.94
     1.882192         39.02
     1.880146        147.21
     1.876758          0.98
     1.836704        251.85
     1.814840          0.17
     1.804172         26.37
     1.803792         39.45
     1.792146        148.85
     1.777210         60.18
     1.766381         48.17
     1.760191        238.53
     1.756560         53.72
     1.755368        264.25
     1.751175         31.94
     1.712066          8.07
     1.706260         20.14
     1.700061          7.81
     1.689124         18.13
     1.681962          0.03
     1.669825         45.66
     1.660781         15.24
     1.649243         58.59
     1.637340         78.50
     1.634009         42.81
     1.633476          0.14
     1.625737         56.50
     1.619775          4.26
     1.608849         58.15
     1.604845          3.54
     1.602595         24.15
     1.601273        164.97
     1.592225          0.52
     1.590929         47.82
     1.584416         26.18
     1.582959          0.00
     1.577647         69.54
     1.576506         87.86
     1.576350         35.95
     1.571484         48.85
     1.571033          0.58
     1.551411          4.18
     1.526601          0.11
     1.523468          8.04
     1.519623         13.17
     1.519299          5.61
     1.518336          1.62
     1.511928         11.84
     1.511476         43.69
     1.510046          3.66
     1.501241         34.54
     1.497016        166.03
     1.496045          2.27
     1.494970          9.47
     1.492355         19.51
     1.481011         58.83
     1.479071         60.52
     1.476000          4.30
     1.457032          4.82
     1.452311          3.33
     1.446010         70.51
     1.445359         20.05
     1.442721         16.55
     1.439155          0.04
     1.436764         14.85
     1.429751         27.34
     1.427145          6.42
     1.420049          2.20
     1.418874         17.90
     1.418682         28.28
     1.414222          0.22
     1.404235         31.96
     1.400492          6.79
     1.398319         52.31
     1.398278          5.03
     1.397327          1.80
     1.391406         16.00
     1.391002          1.25
     1.389228         18.24
     1.386939         13.81
     1.386358          0.51
     1.380578         82.97
     1.369153          0.64
     1.364810          9.83
     1.359744          1.52
     1.353812         49.04
     1.353186         32.74
     1.351112          1.92
     1.348387          9.26
     1.338953          0.31
     1.331838          0.19
     1.328348         30.12
     1.327709         61.53
     1.326116          8.39
     1.323062         13.99
     1.314795          0.19
     1.313381          2.19
     1.313066          1.01
     1.309743         40.57
     1.305473          5.05
     1.305352         13.71
     1.305283          8.96
     1.302103         35.55
     1.299618         43.36
     1.295638          2.37
     1.293613          6.59
     1.286668         52.65
     1.286408         25.35
     1.284903         36.24
     1.280612         32.11
     1.278034         27.14
     1.277378          3.00
     1.276053          1.69
     1.273773         20.98
     1.270501          4.65
     1.268171          0.60
     1.263713         15.07
     1.263359          1.58
     1.262394          4.94
     1.262032          8.31
     1.261712         44.13
     1.261296          5.85
     1.258024          0.75
     1.254864          3.54
     1.251382         31.50
     1.250573         31.94
     1.250238         16.20
     1.249325         26.70
     1.244163         50.45
     1.242368          1.25
     1.239809          2.03
     1.238940          0.04
     1.229528          1.77
     1.228441         31.16
     1.224469          0.60
     1.223468          3.24
     1.222792         30.07
     1.221617         13.24
     1.216507          6.57
     1.215692         11.58
     1.215408          0.05
     1.211338         10.69
     1.203634          0.16
     1.200832          0.91
     1.197053          6.89
     1.195131         23.64
     1.193789          0.61
     1.192150          1.57
     1.191685         30.03
     1.186727         24.41
     1.185190          1.09
     1.180749          1.87
     1.180069          9.23
     1.176376         16.61
     1.174638         45.95
     1.173447          7.35
     1.173063         41.86
     1.172329         26.16
     1.170811         15.70
     1.169930         15.54
     1.169080         12.96
     1.167077          0.59
     1.164945         37.30
     1.163490         19.55
     1.161170          5.24
     1.160983          1.59
     1.160866          6.68
     1.159701          0.05
     1.157253          0.04
     1.156510          9.81
     1.155189          6.43
     1.155144         32.05
     1.151324          7.72
     1.147277          9.77
     1.146549          3.85
     1.145099          8.50
     1.143235          1.20
     1.139718         24.03
     1.137133         27.39
     1.133705         37.82
     1.132250          3.31
     1.130990          1.06
     1.130592          0.26
     1.130025          1.21
     1.128782         43.22
     1.128588         29.98
     1.124102          0.01
     1.122585          8.18
     1.121079          8.62
     1.120629         10.69
     1.117911         17.21
     1.116290         22.26
     1.115292          0.61
     1.113844         16.42
     1.112498          3.00
     1.109402          6.91
     1.107787          6.94
     1.105898          4.65
     1.104778         37.20
     1.101759         21.35
     1.100821          1.96
     1.098490         10.83
     1.097653          0.85
     1.095760          0.01
     1.094213          0.69
     1.091654         39.05
     1.091560         35.87
     1.090985          0.14
     1.090654         21.43
     1.090365          0.37
     1.090144         17.10
     1.088732         17.80
     1.087315         21.01
     1.086543          2.26
     1.086388          7.45
     1.085690          4.74
     1.083825          7.56
     1.082041          0.40
     1.080334          0.35
     1.080212         22.19
     1.077834          1.23
     1.075863          2.27
     1.072631         31.72
     1.072566         13.82
     1.068723         44.22
     1.067833          2.89
     1.067585          3.52
     1.067391         29.17
     1.067047          0.03
     1.065866          0.03
     1.065514          0.41
     1.065121          1.05
     1.064824          0.72
     1.063227          8.38
     1.062229          0.05
     1.060620         14.17
     1.060074         15.82
     1.059404          5.14
     1.058776          9.89
     1.058666         11.12
     1.056009          2.48
##############################################################################
###                            Comments                                    ###
##############################################################################
###   Diffraction pattern calculated by Match!. 
###   I/Ic calculated by Match!. 
##############################################################################


