##############################################################################
###               Crystal structure data exported by Match!                ###
##############################################################################
###                           Data published by:                           ###
###                                                                        ###
###               COD (Crystallography Open Database)
##############################################################################
data_4337659
_citation_journal_full    'Inorganic chemistry'
_citation_journal_volume  '53(6)'
_citation_page_first  '3072'
_citation_page_last   '3077'
_citation_year  '2014'
_citation_title  'Ionothermal Synthesis, Crystal Structure, and Magnetic Study of Co2PO4OH Isostructural with Caminite.'
loop_
_publ_author_name
  'Wang Guangmei'
  'Valldor Martin'
  'Spielberg Eike T.'
  'Mudring Anja-Verena'
_chemical_formula_sum  'Co8 H4 O20 P4'
_symmetry_space_group_name_H-M 'I 41/a m d'
_space_group_IT_number 141
_space_group_crystal_system 'tetragonal'
loop_
_symmetry_equiv_pos_as_xyz
   'x, y, z'
   'x+0.5, y+0.5, z+0.5'
   '-y+0.25, x+0.75, z+0.25'
   '-y+0.75, x+0.25, z+0.75'
   '-x, -y+0.5, z'
   '-x+0.5, -y, z+0.5'
   'y+0.25, -x+0.25, z+0.75'
   'y+0.75, -x+0.75, z+0.25'
   'x, -y, -z'
   'x+0.5, -y+0.5, -z+0.5'
   '-x, y+0.5, -z'
   '-x+0.5, y, -z+0.5'
   'y+0.25, x+0.75, -z+0.25'
   'y+0.75, x+0.25, -z+0.75'
   '-y+0.25, -x+0.25, -z+0.75'
   '-y+0.75, -x+0.75, -z+0.25'
   '-x, -y, -z'
   '-x+0.5, -y+0.5, -z+0.5'
   'y+0.25, -x+0.75, -z+0.25'
   'y+0.75, -x+0.25, -z+0.75'
   'x, y+0.5, -z'
   'x+0.5, y, -z+0.5'
   '-y+0.25, x+0.25, -z+0.75'
   '-y+0.75, x+0.75, -z+0.25'
   '-x, y, z'
   '-x+0.5, y+0.5, z+0.5'
   'x, -y+0.5, z'
   'x+0.5, -y, z+0.5'
   '-y+0.25, -x+0.75, z+0.25'
   '-y+0.75, -x+0.25, z+0.75'
   'y+0.25, x+0.25, z+0.75'
   'y+0.75, x+0.75, z+0.25'
_cell_length_a        5.27130
_cell_length_b        5.27130
_cell_length_c       12.90700
_cell_angle_alpha    90.0000
_cell_angle_beta     90.0000
_cell_angle_gamma    90.0000
_cell_formula_units_Z 1
loop_
_atom_site_label
_atom_site_fract_x
_atom_site_fract_y
_atom_site_fract_z
_atom_site_occupancy
_atom_site_B_iso_or_equiv
co      -0.750   -0.250   0.250    1.00000    2.510
p      -0.500   -0.750   0.125    1.00000    0.708
o      -0.500   -0.517   0.193    1.00000    1.263
o      -1.000   -0.250   0.125    1.00000    0.789
_cell_measurement_wavelength    1.541874
_cell_measurement_radiation   'x-rays'
_cell_measurement_temperature    293.000000
_exptl_crystal_density_diffrn    4.256000
loop_
_pd_peak_d_spacing
_pd_peak_intensity
     4.880005        320.44
     3.333089       1000.00
     3.227686        274.22
     3.226750        150.93
     2.635650         61.69
     2.440003        190.64
     2.319034        254.60
     2.318339         49.10
     2.067389        265.18
     2.041250         48.70
     1.863686        125.64
     1.863145         27.11
     1.741041         22.78
     1.740747          6.31
     1.740453         51.06
     1.666544        207.98
     1.626668         87.28
     1.613960         33.27
     1.613843        246.12
     1.613375         23.85
     1.480987          1.68
     1.452706         28.43
     1.452535          8.61
     1.452364         74.70
     1.384256         31.52
     1.383813          9.10
     1.376036         10.15
     1.317825         76.95
     1.317634         20.99
     1.291179          0.01
     1.272252          4.32
     1.272137          1.24
     1.272022          6.63
     1.225514         39.40
     1.225206         23.17
     1.220052          3.98
     1.220001          9.27
     1.219799          0.06
     1.219647          5.87
     1.178698          5.30
     1.159517         17.43
     1.159300          0.04
     1.159170         44.37
     1.145667          7.97
     1.145583         30.48
     1.145332          5.07
     1.123726          0.00
     1.111030          1.21
     1.107144          9.27
     1.075895          6.62
     1.075583          0.24
     1.050761          2.63
     1.050631          5.91
     1.050437          0.35
     1.033695         38.92
     1.023965         29.18
     1.023786         14.74
     1.020773         10.36
     1.020625         13.68
     1.020536          7.95
##############################################################################
###                            Comments                                    ###
##############################################################################
###   Diffraction pattern calculated by Match!. 
###   I/Ic calculated by Match!. 
###   Space group has been derived from given symmetry operations. 
##############################################################################


