##############################################################################
###               Crystal structure data exported by Match!                ###
##############################################################################
###                           Data published by:                           ###
###                                                                        ###
###               COD (Crystallography Open Database)
##############################################################################
data_1532119
_citation_journal_full    'Physical Review, Serie 3. B - Condensed Matter (18,1978-)'
_citation_journal_volume  '65'
_citation_page_first  '064112'
_citation_page_last   '1-064112-8'
_citation_year  '2002'
_citation_title  'High-pressure structural studies of hematite Fe2 O3'
loop_
_publ_author_name
  'Rozenberg G.Kh.'
  'Dubrovinskii L.S.'
  'Le Bihan T.'
  'Pasternak M.P.'
  'Naaman O.'
  'Ahuja R.'
_chemical_formula_sum  'Fe2 O3'
_chemical_name_mineral  'Hematite'
_chemical_name_common  'Iron(III) oxide'
_symmetry_space_group_name_H-M 'R -3 c'
_space_group_IT_number 167
_space_group_crystal_system 'trigonal (hexagonal axes)'
loop_
_symmetry_equiv_pos_as_xyz
   'x, y, z'
   'x+0.66667, y+0.33333, z+0.33333'
   'x+0.33333, y+0.66667, z+0.66667'
   '-y, x-y, z'
   '-y+0.66667, x-y+0.33333, z+0.33333'
   '-y+0.33333, x-y+0.66667, z+0.66667'
   '-x+y, -x, z'
   '-x+y+0.66667, -x+0.33333, z+0.33333'
   '-x+y+0.33333, -x+0.66667, z+0.66667'
   'x-y, -y, -z+0.5'
   'x-y+0.66667, -y+0.33333, -z+0.83333'
   'x-y+0.33333, -y+0.66667, -z+0.16667'
   '-x, -x+y, -z+0.5'
   '-x+0.66667, -x+y+0.33333, -z+0.83333'
   '-x+0.33333, -x+y+0.66667, -z+0.16667'
   'y, x, -z+0.5'
   'y+0.66667, x+0.33333, -z+0.83333'
   'y+0.33333, x+0.66667, -z+0.16667'
   '-x, -y, -z'
   '-x+0.66667, -y+0.33333, -z+0.33333'
   '-x+0.33333, -y+0.66667, -z+0.66667'
   'y, -x+y, -z'
   'y+0.66667, -x+y+0.33333, -z+0.33333'
   'y+0.33333, -x+y+0.66667, -z+0.66667'
   'x-y, x, -z'
   'x-y+0.66667, x+0.33333, -z+0.33333'
   'x-y+0.33333, x+0.66667, -z+0.66667'
   '-x+y, y, z+0.5'
   '-x+y+0.66667, y+0.33333, z+0.83333'
   '-x+y+0.33333, y+0.66667, z+0.16667'
   'x, x-y, z+0.5'
   'x+0.66667, x-y+0.33333, z+0.83333'
   'x+0.33333, x-y+0.66667, z+0.16667'
   '-y, -x, z+0.5'
   '-y+0.66667, -x+0.33333, z+0.83333'
   '-y+0.33333, -x+0.66667, z+0.16667'
_cell_length_a        4.98650
_cell_length_b        4.98650
_cell_length_c       13.50160
_cell_angle_alpha    90.0000
_cell_angle_beta     90.0000
_cell_angle_gamma   120.0000
_cell_formula_units_Z 6
loop_
_atom_site_label
_atom_site_fract_x
_atom_site_fract_y
_atom_site_fract_z
_atom_site_occupancy
_atom_site_B_iso_or_equiv
fe      0.000   0.000   0.351    1.00000    1.000
o      0.000   0.323   0.250    1.00000    1.000
_cell_measurement_wavelength    1.541874
_cell_measurement_radiation   'x-rays'
_exptl_crystal_density_diffrn    5.472000
loop_
_pd_peak_d_spacing
_pd_peak_intensity
     3.637803        366.33
     2.659413       1000.00
     2.493250        786.10
     2.250267         42.55
     2.180941        198.28
     2.056583         47.23
     1.818901        312.20
     1.670496        576.89
     1.620417          0.77
     1.586502         41.39
     1.571921         34.10
     1.469432        254.11
     1.439478        301.04
     1.396862          0.37
     1.329706         13.48
     1.288646        106.65
     1.285429         16.65
     1.246625         63.95
     1.245962          0.21
     1.212601         35.07
     1.201388         11.56
     1.193034          0.13
     1.179302         15.36
     1.173276         17.59
     1.144779         60.62
     1.128764         76.43
     1.125133          5.89
     1.094853          0.09
     1.090470         93.64
     1.066062          5.97
     1.040356         89.59
     1.028291         26.43
     1.025545          0.52
     1.017504          0.07
##############################################################################
###                            Comments                                    ###
##############################################################################
###   Diffraction pattern calculated by Match!. 
###   I/Ic calculated by Match!. 
##############################################################################


