##############################################################################
###               Crystal structure data exported by Match!                ###
##############################################################################
###                           Data published by:                           ###
###                                                                        ###
###               COD (Crystallography Open Database)
##############################################################################
data_9015442
_citation_journal_full    'American Mineralogist'
_citation_journal_volume  '97'
_citation_page_first  '1764'
_citation_page_last   '1770'
_citation_year  '2012'
_citation_title  'High-pressure structural studies of eskolaite by means of single-crystal X-ray diffractionNote: P = 55.1 GPa'
loop_
_publ_author_name
  'Kantor A.'
  'Kantor I.'
  'Merlini M.'
  'Glazyrin K.'
  'Prescher C.'
  'Hanfland M.'
  'Dubrovinsky L.'
_chemical_formula_sum  'Cr2 O3'
_chemical_name_mineral  'Eskolaite'
_symmetry_space_group_name_H-M 'R -3 c'
_space_group_IT_number 167
_space_group_crystal_system 'trigonal (hexagonal axes)'
loop_
_symmetry_equiv_pos_as_xyz
   'x, y, z'
   'x+0.66667, y+0.33333, z+0.33333'
   'x+0.33333, y+0.66667, z+0.66667'
   '-y, x-y, z'
   '-y+0.66667, x-y+0.33333, z+0.33333'
   '-y+0.33333, x-y+0.66667, z+0.66667'
   '-x+y, -x, z'
   '-x+y+0.66667, -x+0.33333, z+0.33333'
   '-x+y+0.33333, -x+0.66667, z+0.66667'
   'x-y, -y, -z+0.5'
   'x-y+0.66667, -y+0.33333, -z+0.83333'
   'x-y+0.33333, -y+0.66667, -z+0.16667'
   '-x, -x+y, -z+0.5'
   '-x+0.66667, -x+y+0.33333, -z+0.83333'
   '-x+0.33333, -x+y+0.66667, -z+0.16667'
   'y, x, -z+0.5'
   'y+0.66667, x+0.33333, -z+0.83333'
   'y+0.33333, x+0.66667, -z+0.16667'
   '-x, -y, -z'
   '-x+0.66667, -y+0.33333, -z+0.33333'
   '-x+0.33333, -y+0.66667, -z+0.66667'
   'y, -x+y, -z'
   'y+0.66667, -x+y+0.33333, -z+0.33333'
   'y+0.33333, -x+y+0.66667, -z+0.66667'
   'x-y, x, -z'
   'x-y+0.66667, x+0.33333, -z+0.33333'
   'x-y+0.33333, x+0.66667, -z+0.66667'
   '-x+y, y, z+0.5'
   '-x+y+0.66667, y+0.33333, z+0.83333'
   '-x+y+0.33333, y+0.66667, z+0.16667'
   'x, x-y, z+0.5'
   'x+0.66667, x-y+0.33333, z+0.83333'
   'x+0.33333, x-y+0.66667, z+0.16667'
   '-y, -x, z+0.5'
   '-y+0.66667, -x+0.33333, z+0.83333'
   '-y+0.33333, -x+0.66667, z+0.16667'
_cell_length_a        4.67400
_cell_length_b        4.67400
_cell_length_c       12.94100
_cell_angle_alpha    90.0000
_cell_angle_beta     90.0000
_cell_angle_gamma   120.0000
_cell_formula_units_Z 6
loop_
_atom_site_label
_atom_site_fract_x
_atom_site_fract_y
_atom_site_fract_z
_atom_site_occupancy
_atom_site_B_iso_or_equiv
cr      0.000   0.000   0.345    1.00000    0.765
o      0.317   0.000   0.250    1.00000    0.986
_cell_measurement_wavelength    1.541874
_cell_measurement_radiation   'x-rays'
_exptl_crystal_density_diffrn    6.185000
loop_
_pd_peak_d_spacing
_pd_peak_intensity
     3.431638        768.28
     2.527217       1000.00
     2.337000        949.25
     2.156833         85.37
     2.054819        279.72
     1.931614         82.49
     1.715819        314.01
     1.584983        909.41
     1.519345          2.37
     1.502118          2.82
     1.488872         71.66
     1.383075        239.70
     1.349268        355.25
     1.317034          1.15
     1.263608          0.16
     1.232638        126.25
     1.224652         23.58
     1.178660          0.66
     1.168500         74.35
     1.143879         64.06
     1.127853         14.95
     1.118458          0.35
     1.111532          0.62
     1.106133         30.12
     1.090276         70.19
     1.078417         24.76
     1.060616         71.59
     1.029941          0.25
     1.027410        157.23
##############################################################################
###                            Comments                                    ###
##############################################################################
###   Synthetic
###   Diffraction pattern calculated by Match!. 
###   I/Ic calculated by Match!. 
##############################################################################


