##############################################################################
###               Crystal structure data exported by Match!                ###
##############################################################################
###                           Data published by:                           ###
###                                                                        ###
###               COD (Crystallography Open Database)
##############################################################################
data_9003043
_citation_journal_full    'American Mineralogist'
_citation_journal_volume  '88'
_citation_page_first  '996'
_citation_page_last   '1002'
_citation_year  '2003'
_citation_title  'Bulk modulus and high-pressure crystal structures of minium, Pb3O4, determined by X-ray powder diffraction Sample: Phase III of Pb3O4 at 13.3 GPa'
loop_
_publ_author_name
  'Dinnebier R. E.'
  'Carlson S.'
  'Hanfland M.'
  'Jansen M.'
_chemical_formula_sum  'O4 Pb3'
_chemical_name_mineral  'Minium'
_symmetry_space_group_name_H-M 'P b a m'
_space_group_IT_number 55
_space_group_crystal_system 'orthorhombic'
loop_
_symmetry_equiv_pos_as_xyz
   'x, y, z'
   '-x, -y, z'
   'x+0.5, -y+0.5, -z'
   '-x+0.5, y+0.5, -z'
   '-x, -y, -z'
   'x, y, -z'
   '-x+0.5, y+0.5, z'
   'x+0.5, -y+0.5, z'
_cell_length_a        9.38120
_cell_length_b        6.46100
_cell_length_c        3.31680
_cell_angle_alpha    90.0000
_cell_angle_beta     90.0000
_cell_angle_gamma    90.0000
loop_
_atom_site_label
_atom_site_fract_x
_atom_site_fract_y
_atom_site_fract_z
_atom_site_occupancy
_atom_site_B_iso_or_equiv
pb      0.676   0.950   0.500    1.00000    1.104
pb      0.500   0.500   0.000    1.00000    1.342
o      0.313   0.301   0.000    1.00000    3.316
o      0.584   0.311   0.500    1.00000    3.316
_cell_measurement_wavelength    1.541874
_cell_measurement_radiation   'x-rays'
_exptl_crystal_density_diffrn    11.326000
loop_
_pd_peak_d_spacing
_pd_peak_intensity
     5.321108         30.66
     4.690600         12.03
     3.795778         62.67
     3.316800         98.76
     3.230500        506.27
     3.054468        164.04
     2.814753        831.21
     2.814725       1000.00
     2.708144        450.30
     2.660554          0.44
     2.497615         14.07
     2.345300          3.94
     2.314217         28.86
     2.246861        182.10
     2.246847          0.34
     2.204552         42.79
     2.146104         97.10
     2.099063          5.23
     2.075370        434.86
     1.957220         71.35
     1.914938        104.56
     1.897889         11.82
     1.860211          1.45
     1.835995         22.58
     1.801805          4.94
     1.773709        147.29
     1.773703        149.13
     1.685625         97.77
     1.658400        121.75
     1.647278         93.09
     1.622450         12.67
     1.615250         28.28
     1.591827         62.42
     1.586301         43.19
     1.583286          1.11
     1.583271        234.49
     1.564102          0.37
     1.563552          1.05
     1.563533         77.39
     1.527234          6.34
     1.519686          8.22
     1.519669          1.29
     1.475352         92.54
     1.457439         31.79
     1.457427         19.46
     1.452201          2.23
     1.435109         69.31
     1.435105          2.78
     1.431055         68.40
     1.428837        218.30
     1.414686          0.24
     1.414273          7.64
     1.407376          0.02
     1.407363         81.47
     1.387238         42.14
     1.381561          0.55
     1.354072          1.26
     1.334302          0.32
     1.330277          6.49
     1.325280         11.29
     1.317104          2.82
     1.312239          4.69
     1.301274          2.36
     1.301266         54.40
     1.295559          8.31
     1.280113         10.33
     1.265269         29.43
     1.265259          2.23
     1.248808          4.44
     1.245791         21.68
     1.237878          9.69
     1.234674         20.58
     1.224115         14.72
     1.220219          2.58
     1.220212         22.57
     1.211379         69.33
     1.194254         11.86
     1.194252          5.34
     1.182166          4.33
     1.172650          2.11
     1.166240         34.30
     1.159747          7.67
     1.159741         17.78
     1.157108         15.71
     1.153800          1.03
     1.148406         36.55
     1.148400         21.55
     1.146326         27.02
     1.137855          4.56
     1.137645         47.25
     1.131780         20.81
     1.123634          9.47
     1.123430          3.88
     1.123423         13.38
     1.120409          0.71
     1.105600          2.97
     1.105587         35.81
     1.102276          0.52
     1.089747          1.65
     1.085197          1.68
     1.082481         32.69
     1.076833          0.35
     1.076287          0.12
     1.076283         11.44
     1.076111         21.28
     1.073052         60.94
     1.071138         35.46
     1.069809         13.57
     1.064222          4.53
     1.064045          1.50
     1.061489          1.62
     1.049531          8.28
     1.046036          2.08
     1.046025         49.36
     1.039594         11.19
     1.037685          5.34
     1.031389         17.41
     1.029882          3.53
     1.029062          7.95
     1.029055          4.07
     1.029050         30.07
     1.024207         10.81
     1.020957         33.42
     1.018157         26.97
     1.018156          0.29
     1.013341          8.94
     1.013338          9.09
##############################################################################
###                            Comments                                    ###
##############################################################################
###   Diffraction pattern calculated by Match!. 
###   I/Ic calculated by Match!. 
##############################################################################


