##############################################################################
###               Crystal structure data exported by Match!                ###
##############################################################################
###                           Data published by:                           ###
###                                                                        ###
###               COD (Crystallography Open Database)
##############################################################################
data_1011369
_citation_journal_full    'Mineralogical Magazine and Journal of the Mineralogical Society (1876- 1968)'
_citation_journal_volume  '20'
_citation_page_first  '382'
_citation_page_last   '392'
_citation_year  '1925'
_citation_title  'The cyrstal-structures of the sulphides of mercury.'
loop_
_publ_author_name
  'Buckley H E'
  'Vernon W S'
_chemical_formula_sum  'Hg S'
_chemical_name_mineral  'Cinnabar'
_chemical_name_common  'Mercury sulfide'
_symmetry_space_group_name_H-M 'P 31 2 1'
_space_group_IT_number 152
_space_group_crystal_system 'trigonal (hexagonal axes)'
loop_
_symmetry_equiv_pos_as_xyz
   'x, y, z'
   '-y, x-y, z+0.33333'
   '-x+y, -x, z+0.66667'
   'x-y, -y, -z+0.66667'
   '-x, -x+y, -z+0.33333'
   'y, x, -z'
_cell_length_a        4.16000
_cell_length_b        4.16000
_cell_length_c        9.54000
_cell_angle_alpha    90.0000
_cell_angle_beta     90.0000
_cell_angle_gamma   120.0000
_cell_formula_units_Z 3
loop_
_atom_site_label
_atom_site_fract_x
_atom_site_fract_y
_atom_site_fract_z
_atom_site_occupancy
_atom_site_B_iso_or_equiv
hg      0.333   0.000   0.333    1.00000    1.000
s      0.210   0.000   0.833    1.00000    1.000
_cell_measurement_wavelength    1.541874
_cell_measurement_radiation   'x-rays'
_exptl_crystal_density_diffrn    8.105000
_exptl_crystal_density_meas      8.089000
loop_
_pd_peak_d_spacing
_pd_peak_intensity
     3.602666         10.93
     3.370349        872.17
     3.180000        231.18
     2.874836       1000.00
     2.384098          5.86
     2.080000        344.08
     2.032257          4.98
     1.988704        326.45
     1.906615          3.97
     1.801333          0.27
     1.770056        159.40
     1.740704        282.26
     1.686131        113.53
     1.685174        164.91
     1.590000         52.35
     1.567597          1.89
     1.567341          0.31
     1.454632          0.94
     1.437418         91.97
     1.406041          1.22
     1.361680          2.10
     1.348017        128.74
     1.309821         52.98
     1.309373        116.58
     1.274698         40.57
     1.263201        115.80
     1.251749          3.03
     1.200889         40.50
     1.192049          0.11
     1.191486          0.87
     1.182520         80.50
     1.164550          0.81
     1.139952          0.57
     1.132093         43.19
     1.123450         69.63
     1.108368         64.50
     1.086842         27.91
     1.072594          0.63
     1.060000          6.88
     1.040000         24.86
     1.034537          0.44
     1.034243          1.69
     1.033875          0.27
     1.016897          0.28
     1.016338          0.55
     1.016129          0.27
##############################################################################
###                            Comments                                    ###
##############################################################################
###   Diffraction pattern calculated by Match!. 
###   I/Ic calculated by Match!. 
##############################################################################


