##############################################################################
###               Crystal structure data exported by Match!                ###
##############################################################################
###                           Data published by:                           ###
###                                                                        ###
###               COD (Crystallography Open Database)
##############################################################################
data_9013731
_citation_journal_full    'American Mineralogist'
_citation_journal_volume  '95'
_citation_page_first  '348'
_citation_page_last   '361'
_citation_year  '2010'
_citation_title  'Factors responsible for crystal-chemical variations in the solid solutionsfrom illite to aluminoceladonite and from glauconite to celadoniteLocality: Leningrad region, RussiaSample Name: BAB'
loop_
_publ_author_name
  'Drits V. A.'
  'Zviagina B. B.'
  'McCarty D. K.'
  'Salyn A. L.'
_chemical_formula_sum  'Al2 H2 K O12 Si4'
_chemical_name_mineral  'Glauconite'
_symmetry_space_group_name_H-M 'C 1 2/m 1'
_space_group_IT_number 12
_space_group_crystal_system 'monoclinic'
loop_
_symmetry_equiv_pos_as_xyz
   'x, y, z'
   'x+0.5, y+0.5, z'
   '-x, y, -z'
   '-x+0.5, y+0.5, -z'
   '-x, -y, -z'
   '-x+0.5, -y+0.5, -z'
   'x, -y, z'
   'x+0.5, -y+0.5, z'
_cell_length_a        5.24600
_cell_length_b        9.06600
_cell_length_c       10.18200
_cell_angle_alpha    90.0000
_cell_angle_beta    101.2000
_cell_angle_gamma    90.0000
loop_
_atom_site_label
_atom_site_fract_x
_atom_site_fract_y
_atom_site_fract_z
_atom_site_occupancy
_atom_site_B_iso_or_equiv
k      0.000   0.500   0.500    1.00000    1.000
al      0.500   0.167   0.000    1.00000    1.000
si      0.422   0.331   0.273    1.00000    1.000
o      0.358   0.319   0.111    1.00000    1.000
o      0.473   0.500   0.327    1.00000    1.000
o      0.686   0.240   0.335    1.00000    1.000
o      0.413   0.000   0.108    1.00000    1.000
_cell_measurement_wavelength    1.541874
_cell_measurement_radiation   'x-rays'
_exptl_crystal_density_diffrn    2.792000
loop_
_pd_peak_d_spacing
_pd_peak_intensity
     9.988086        254.08
     4.994043        189.27
     4.533000        474.65
     4.475372          2.00
     4.368779        318.07
     4.127786        194.59
     3.848733         31.31
     3.653736       1000.00
     3.356502        351.62
     3.329362        317.25
     3.084029        843.05
     2.917683        272.12
     2.683356        362.05
     2.617543        137.71
     2.605896        327.66
     2.584347        434.09
     2.573045        233.66
     2.497021         27.07
     2.492930         36.62
     2.478286         44.52
     2.463009         74.26
     2.409532        266.22
     2.382411        164.41
     2.356509         41.96
     2.266769         79.89
     2.266500         45.03
     2.259274          8.44
     2.237686         86.02
     2.222379         15.99
     2.210307        109.63
     2.187141          0.32
     2.184390         43.36
     2.157650        206.78
     2.125393        103.11
     2.108886         93.58
     2.063893          4.20
     2.038945          0.18
     2.022044         30.22
     1.997617        187.54
     1.996155         52.03
     1.960601        110.32
     1.950925         14.26
     1.924367          8.82
     1.898620          7.95
     1.873566          0.48
     1.867915          0.80
     1.827988          1.21
     1.826868         50.21
     1.751254         33.02
     1.727034          1.19
     1.720374         36.23
     1.719255          2.12
     1.716584         30.49
     1.713429          1.44
     1.710150          1.68
     1.704016         23.09
     1.700764          1.15
     1.698174         12.28
     1.685459         13.70
     1.678251         41.43
     1.677007          0.49
     1.667808         17.45
     1.666509        228.67
     1.664681          7.69
     1.654215          8.13
     1.650908         79.20
     1.642106         48.91
     1.639809        108.72
     1.634713         65.96
     1.633582          2.68
     1.612244          6.42
     1.600097         93.17
     1.586828         78.81
     1.562754         14.34
     1.562642          2.23
     1.550366         36.40
     1.542014         10.50
     1.540815         58.94
     1.539911         28.11
     1.515071        104.98
     1.513242        228.90
     1.511928         59.09
     1.511000        115.20
     1.500585         12.07
     1.498622         27.42
     1.498005          1.78
     1.494001         16.63
     1.491791         15.28
     1.482802          5.01
     1.480655         26.99
     1.469996         11.17
     1.458842          3.53
     1.456260          1.09
     1.455439         13.44
     1.447574          3.90
     1.446252          0.05
     1.441468          5.38
     1.440308          0.13
     1.431213          9.77
     1.429671          2.75
     1.426869         10.75
     1.399934          1.15
     1.388035          1.92
     1.385780          5.89
     1.378968         65.71
     1.375929          0.24
     1.370327          0.31
     1.367438          0.00
     1.365380         62.80
     1.361034         21.50
     1.344170        110.28
     1.342635          4.54
     1.341678         24.72
     1.328554          6.56
     1.316661          0.00
     1.308771         38.82
     1.308616         69.94
     1.308592         36.86
     1.307361         70.60
     1.306854         13.74
     1.305680         34.31
     1.302948         89.03
     1.297496          2.57
     1.292742         38.37
     1.292173          0.00
     1.288209          9.35
     1.287680          0.65
     1.287033         19.13
     1.286523          0.03
     1.282911         36.06
     1.276003         42.85
     1.274247          0.11
     1.259570          3.36
     1.258890         11.56
     1.258519         17.18
     1.257411         16.75
     1.257253          0.01
     1.255991         28.79
     1.255977          0.28
     1.253541          1.51
     1.251209          7.28
     1.248511         19.24
     1.246465          0.11
     1.246098          5.13
     1.245693         14.34
     1.239143         24.56
     1.238914          1.45
     1.238096         22.26
     1.237642          7.10
     1.233311          3.20
     1.231939         21.63
     1.231504          0.00
     1.225165         25.36
     1.220195          1.78
     1.219980          7.19
     1.217912         16.71
     1.215620          1.56
     1.208710          0.18
     1.207508         28.17
     1.205087         19.09
     1.204766          0.15
     1.204614         26.51
     1.203689          0.69
     1.202696          6.47
     1.201856          3.77
     1.201163         23.48
     1.194866         14.06
     1.193980         15.08
     1.192151          2.38
     1.191205          0.56
     1.183699          8.41
     1.181814          2.52
     1.178255          3.75
     1.174762          4.98
     1.171756          5.68
     1.170847         19.27
     1.169555          5.60
     1.157163          1.25
     1.156225          1.80
     1.156141         18.95
     1.153227          2.41
     1.152945          8.43
     1.152090          3.39
     1.144027          7.11
     1.144016          0.21
     1.133384          0.03
     1.133268         10.46
     1.133250          0.15
     1.132139          6.92
     1.131375          0.98
     1.130969          1.24
     1.129637         34.44
     1.128603          1.75
     1.126025         11.32
     1.122363          1.30
     1.120354          2.05
     1.119951          1.06
     1.119178         10.94
     1.118843          1.72
     1.118834          1.82
     1.116465          0.03
     1.111189         55.22
     1.109787          0.87
     1.109635         22.64
     1.108845          1.46
     1.105153          1.71
     1.101273          0.59
     1.099673          2.73
     1.096114          0.02
     1.095169          1.09
     1.093570          1.60
     1.092195          0.04
     1.091675          4.06
     1.086744          2.43
     1.085344          5.28
     1.085131          8.27
     1.078825         45.64
     1.077952          1.23
     1.074392          0.78
     1.072832          0.76
     1.072806          0.36
     1.068676          2.65
     1.063752          0.20
     1.062697         20.20
     1.062388          1.45
     1.059300         30.35
     1.056979          0.02
     1.055099          0.09
     1.054443          1.13
     1.048579         11.88
     1.046276         14.87
     1.045293          0.84
     1.042169          0.50
     1.041266          0.30
     1.040881          2.46
     1.040672          1.06
     1.039967          2.07
     1.037828          0.09
     1.037417         16.85
     1.037116          0.23
     1.037018          0.27
     1.036527          0.29
     1.035619          0.49
     1.035259          2.71
     1.034645          0.94
     1.033616          2.23
     1.031947          2.86
     1.031657          1.24
     1.029949          5.79
     1.028010         15.29
     1.026283          1.60
     1.023372         13.63
     1.022649          5.33
     1.021575          5.10
     1.020679          0.03
     1.019473          7.95
     1.017751         16.75
     1.016022          3.13
     1.013050         13.19
     1.012961         13.19
     1.011977          0.43
     1.011839          3.19
     1.011022          0.01
     1.010280          0.53
##############################################################################
###                            Comments                                    ###
##############################################################################
###   Diffraction pattern calculated by Match!. 
###   I/Ic calculated by Match!. 
###   Space group has been derived from given symmetry operations. 
##############################################################################


