##############################################################################
###               Crystal structure data exported by Match!                ###
##############################################################################
###                           Data published by:                           ###
###                                                                        ###
###               COD (Crystallography Open Database)
##############################################################################
data_1539682
_citation_journal_full    'Journal of Solid State Chemistry'
_citation_journal_volume  '101'
_citation_page_first  '275'
_citation_page_last   '295'
_citation_year  '1992'
_citation_title  'The soft chemical synthesis of Ti O2 (B) from layered titanates'
loop_
_publ_author_name
  'Feist T.P.'
  'Davies P.K.'
_chemical_formula_sum  'O2 Ti'
_chemical_name_common  'Titanium(IV) oxide'
_symmetry_space_group_name_H-M 'P 1 21/m 1'
_space_group_IT_number 11
_space_group_crystal_system 'monoclinic'
loop_
_symmetry_equiv_pos_as_xyz
   'x, y, z'
   '-x, y+0.5, -z'
   '-x, -y, -z'
   'x, -y+0.5, z'
_cell_length_a       12.17870
_cell_length_b        3.74120
_cell_length_c        6.52490
_cell_angle_alpha    90.0000
_cell_angle_beta    107.0500
_cell_angle_gamma    90.0000
_cell_formula_units_Z 4
loop_
_atom_site_label
_atom_site_fract_x
_atom_site_fract_y
_atom_site_fract_z
_atom_site_occupancy
_atom_site_B_iso_or_equiv
o      0.362   0.250   0.293    1.00000    1.000
ti      0.099   0.250   0.705    1.00000    1.000
o      0.264   0.250   0.653    1.00000    1.000
o      0.132   0.250   0.004    1.00000    1.000
o      0.060   0.250   0.371    1.00000    1.000
ti      0.197   0.250   0.292    1.00000    1.000
_cell_measurement_wavelength    1.541874
_cell_measurement_radiation   'x-rays'
_exptl_crystal_density_diffrn    1.866000
loop_
_pd_peak_d_spacing
_pd_peak_intensity
    11.643437       1000.00
     6.324527          5.43
     6.238126         63.36
     5.821719         42.35
     5.060100          6.25
     4.929792         27.37
     3.881146         25.85
     3.838686         31.60
     3.743719          9.42
     3.561848        375.78
     3.261306          8.19
     3.220011          0.43
     3.208433          4.62
     3.162263          7.94
     3.147345        122.20
     3.119063         62.73
     3.008264         10.05
     2.995790         42.26
     2.980186         29.22
     2.932250          4.13
     2.910859         12.60
     2.877950          2.84
     2.813680          2.84
     2.693544         15.75
     2.679230          1.28
     2.646318         13.71
     2.530050          6.73
     2.464896          1.81
     2.458366         39.57
     2.427237          2.26
     2.415100          8.83
     2.395691          0.39
     2.383572          7.97
     2.338456          8.48
     2.328687          0.78
     2.307857          0.68
     2.297385          0.33
     2.281102          0.75
     2.248698         25.62
     2.200801          0.03
     2.170114          0.05
     2.159503          2.81
     2.143642          0.62
     2.108176          1.45
     2.095796          0.65
     2.079375         36.46
     2.058311          4.59
     2.036231         69.46
     2.029429         30.30
     2.010244          0.20
     1.998112          0.75
     1.990409          1.29
     1.976991          0.01
     1.950407         10.18
     1.940573          1.86
     1.919343          3.39
     1.896925          8.60
     1.877169          0.75
     1.871860          0.20
     1.870600         39.34
     1.870288         11.44
     1.859956          0.14
     1.846917         13.94
     1.842458          0.01
     1.836647          0.65
     1.817509          0.08
     1.798303          3.78
     1.793785          0.22
     1.791776          3.09
     1.783872         23.33
     1.780924          2.36
     1.762491         13.44
     1.757197          2.79
     1.754549          0.45
     1.748926          2.35
     1.739143         17.86
     1.729490         35.34
     1.722622          0.89
     1.715780          5.99
     1.707721          0.01
     1.687424          0.10
     1.686700          6.03
     1.685091          3.91
     1.681569          4.68
     1.674017          0.00
     1.673341          1.29
     1.663348          3.28
     1.652888          9.57
     1.648600          0.35
     1.643264          7.63
     1.630653          1.34
     1.622634          2.01
     1.620799          6.76
     1.620784         23.10
     1.610005          1.57
     1.609051          0.97
     1.604216         12.65
     1.586686          8.93
     1.581132          9.41
     1.577071          3.54
     1.577026          1.83
     1.573672          2.58
     1.568409          1.49
     1.559587          2.82
     1.559531          1.22
     1.557757          0.89
     1.538200          1.12
     1.537652          4.42
     1.537243          4.64
     1.519897          0.95
     1.519359          0.63
     1.517774          0.23
     1.508621          4.39
     1.504528          2.03
     1.504132          2.35
     1.501341          1.80
     1.497895          0.40
     1.497077          4.94
     1.494832          6.74
     1.490093          0.47
     1.489337          0.00
     1.487229          1.22
     1.481651          0.56
     1.478138          4.47
     1.471549          3.19
     1.466125          3.80
     1.458353          0.19
     1.456406          3.02
     1.455430          0.05
     1.439472          0.02
     1.438975          4.95
     1.425310          0.01
     1.421890          1.52
     1.416872          0.01
     1.413906          1.02
     1.409426          0.21
     1.407701          6.41
     1.406840          0.05
     1.406441         17.86
     1.400839          0.05
     1.399202          0.48
     1.393335          1.96
     1.390685         13.12
     1.390579          0.38
     1.389924          0.51
     1.383723          0.05
     1.375441         11.55
     1.365569          0.27
     1.365048          4.76
     1.364891          0.45
     1.363102          0.60
     1.356404          3.19
     1.352664          1.59
     1.350046          4.27
     1.347770          0.01
     1.346772          0.76
     1.343055          3.83
     1.342380          0.08
     1.339615          1.36
     1.333489          0.05
     1.323159          0.11
     1.319414          0.02
     1.316815          0.02
     1.316178          5.54
     1.312651          0.01
     1.311889          2.86
     1.304411          0.00
     1.300559          0.13
     1.296398          1.71
     1.293715          0.23
     1.292085          0.00
     1.282225          3.40
     1.280950          0.03
     1.279562          0.12
     1.273700          9.10
     1.272071          0.35
     1.267999          2.11
     1.265025          0.10
     1.264905          0.08
     1.264436          3.22
     1.263507          1.18
     1.256085          1.04
     1.252958          0.05
     1.252661          3.33
     1.247906          0.17
     1.247625          2.23
     1.244300          0.00
     1.243006          1.88
     1.241585          1.11
     1.239975          7.15
     1.236816          0.17
     1.234557          4.53
     1.232448          0.18
     1.231692          0.00
     1.229183          0.76
     1.228448          0.05
     1.225563          0.06
     1.224946          4.16
     1.223509          0.00
     1.222871          0.08
     1.222676          1.18
     1.221300          0.00
     1.219851          0.62
     1.219404          3.62
     1.213619          1.25
     1.211883          1.66
     1.210837          0.38
     1.210707          0.97
     1.210375          0.21
     1.208984          1.00
     1.207550          5.66
     1.203699          0.60
     1.198797          0.11
     1.198371          0.03
     1.198269          0.02
     1.197845          0.81
     1.191786          0.22
     1.187657          3.18
     1.187283          0.55
     1.186049          0.08
     1.183788          0.72
     1.183548          0.06
     1.183151          0.95
     1.180160          0.31
     1.179351          0.43
     1.178610          0.13
     1.177449          0.98
     1.173068          0.58
     1.170865          1.30
     1.170568          0.00
     1.169228          0.25
     1.168839          3.36
     1.165144          0.00
     1.164813          2.26
     1.164664          0.75
     1.164344          0.84
     1.160115          0.97
     1.157944          0.01
     1.154399          0.25
     1.153929          2.60
     1.152643          0.33
     1.151606          0.64
     1.151299          0.58
     1.149319          0.19
     1.148692          0.05
     1.147593          0.09
     1.146298          0.00
     1.145851          2.93
     1.145376          0.01
     1.144260          0.09
     1.141620          0.01
     1.140551          3.47
     1.140103          1.57
     1.135560          5.07
     1.125490          0.00
     1.124349          0.03
     1.123967          0.17
     1.123137          0.01
     1.121278          0.06
     1.119333          0.13
     1.118568          0.12
     1.112758          0.41
     1.111747          0.26
     1.109229          5.35
     1.105867          1.29
     1.104971          0.09
     1.102587          0.33
     1.101547          2.07
     1.100401          0.35
     1.099352          0.00
     1.098645          1.01
     1.098028          0.08
     1.097689          0.82
     1.096111          1.30
     1.095199          0.03
     1.093502          0.02
     1.090617          0.08
     1.088461          0.01
     1.087474          0.30
     1.087102          0.99
     1.085833          0.03
     1.085057          0.96
     1.084987          0.90
     1.081251          0.09
     1.079975          0.19
     1.079931          1.07
     1.079751          0.15
     1.078193          0.03
     1.077931          0.01
     1.076438          1.58
     1.076425          4.79
     1.073773          0.00
     1.073337          0.04
     1.071821          0.61
     1.069959          0.00
     1.069478          0.01
     1.068066          0.22
     1.067830          0.12
     1.064033          0.24
     1.063561          0.03
     1.063125          0.01
     1.062498          2.52
     1.060506          1.51
     1.058494          0.75
     1.057927          1.87
     1.056896          0.04
     1.056779          0.31
     1.056117          0.13
     1.055779          0.01
     1.055683          0.17
     1.054088          1.06
     1.053587          0.07
     1.053288          0.11
     1.050660          4.02
     1.049115          0.11
     1.047898          0.09
     1.047830          0.07
     1.045721          0.00
     1.045127          0.09
     1.044253          2.23
     1.043924          0.06
     1.042112          0.79
     1.041479          0.33
     1.039688          0.16
     1.038106          0.18
     1.037944          2.29
     1.037837          0.00
     1.037607          0.55
     1.037409          0.84
     1.032743          1.41
     1.032104          3.14
     1.030370          1.19
     1.029156          0.22
     1.027354          0.41
     1.027032          1.67
     1.026815          0.21
     1.025137          0.07
     1.024771          3.52
     1.023025          0.11
     1.018514          0.77
     1.018115          1.38
     1.016198          0.23
     1.016094          0.12
     1.014714          0.11
     1.014586          0.69
     1.013449          0.52
     1.012237          0.69
     1.012020          1.43
     1.009674          0.23
     1.009317          0.11
     1.008764          0.55
##############################################################################
###                            Comments                                    ###
##############################################################################
###   Diffraction pattern calculated by Match!. 
###   I/Ic calculated by Match!. 
##############################################################################


