##############################################################################
###               Crystal structure data exported by Match!                ###
##############################################################################
###                           Data published by:                           ###
###                                                                        ###
###               COD (Crystallography Open Database)
##############################################################################
data_1544872
_citation_journal_full    'Mineralogical Journal'
_citation_journal_volume  '10'
_citation_page_first  '168'
_citation_page_last   '180'
_citation_year  '1980'
_citation_title  'The structural investigation of a kaolin mineral by X-ray powderpattern-fitting'
loop_
_publ_author_name
  'Toraya H.'
  'Iwai S.'
  'Marumo F.'
_chemical_formula_sum  'Al2 H4 O9 Si2'
_chemical_name_mineral  'kaolin'
_chemical_name_common  'Al2Si2O5(OH)4'
_symmetry_space_group_name_H-M 'C 1 c 1'
_space_group_IT_number 9
_space_group_crystal_system 'monoclinic'
loop_
_symmetry_equiv_pos_as_xyz
   'x, y, z'
   'x+0.5, y+0.5, z'
   'x, -y, z+0.5'
   'x+0.5, -y+0.5, z+0.5'
_cell_length_a        8.92000
_cell_length_b        5.15700
_cell_length_c       15.68400
_cell_angle_alpha    90.0000
_cell_angle_beta    113.6100
_cell_angle_gamma    90.0000
_cell_formula_units_Z 4
loop_
_atom_site_label
_atom_site_fract_x
_atom_site_fract_y
_atom_site_fract_z
_atom_site_occupancy
_atom_site_B_iso_or_equiv
al      0.146   0.327   0.228    1.00000    1.000
al      0.489   0.330   0.227    1.00000    1.000
si      0.199   0.493   0.047    1.00000    1.000
si      0.364   -0.001   0.042    1.00000    1.000
o      0.243   0.778   0.007    1.00000    1.000
o      0.248   0.268   -0.004    1.00000    1.000
o      0.013   0.451   0.009    1.00000    1.000
o      0.272   0.436   0.157    1.00000    1.000
o      0.428   0.031   0.155    1.00000    1.000
o      0.108   0.007   0.163    1.00000    1.000
o      0.536   0.649   0.296    1.00000    1.000
o      0.179   0.645   0.289    1.00000    1.000
o      0.368   0.198   0.306    1.00000    1.000
_cell_measurement_wavelength    1.541874
_cell_measurement_radiation   'x-rays'
_exptl_crystal_density_diffrn    2.553000
loop_
_pd_peak_d_spacing
_pd_peak_intensity
     7.185568       1000.00
     4.445837        197.46
     4.386684        253.86
     4.361416        208.57
     4.141592        361.54
     4.086666         47.53
     3.945694         67.83
     3.634810         37.98
     3.592784        463.56
     3.475407        130.22
     3.418378        124.54
     3.119466         49.27
     3.063928        131.27
     2.928454         30.81
     2.677192          4.87
     2.578500         12.42
     2.575336         39.81
     2.561977          7.08
     2.543885         20.70
     2.537972         48.78
     2.526116         13.13
     2.521208         58.68
     2.440025        217.66
     2.426971        204.91
     2.408937        206.59
     2.395189         60.49
     2.318925         48.24
     2.287659         36.66
     2.282749          1.07
     2.270480         21.86
     2.249460         36.84
     2.227805          0.91
     2.222919          6.52
     2.212299          3.48
     2.194142          2.63
     2.193342          9.01
     2.180708          4.61
     2.167043          1.17
     2.113435         33.78
     2.094835         40.96
     2.090768          4.75
     2.073413         41.86
     2.070796          8.21
     2.043333         11.67
     2.032417          2.49
     1.999399          5.52
     1.972847         23.82
     1.958721         15.79
     1.949438          5.06
     1.937569         86.57
     1.932401          1.05
     1.919339         84.57
     1.899076         58.27
     1.841843          7.24
     1.817405         22.50
     1.802174          8.46
     1.796392         23.68
     1.786191         10.37
     1.778863          7.03
     1.771812         25.44
     1.754885         19.33
     1.737704         15.66
     1.736493         17.32
     1.721169          2.21
     1.709189          9.44
     1.686924          1.95
     1.686318          2.87
     1.685345          7.47
     1.683313          8.35
     1.682827          6.85
     1.682198         17.02
     1.679009         11.99
     1.670676         14.66
     1.668726          2.49
     1.661150          8.33
     1.659749         26.40
     1.655111          1.72
     1.649619          1.95
     1.633923          0.12
     1.629732         12.62
     1.621372         28.70
     1.618897          8.80
     1.616738          4.47
     1.615024          2.72
     1.608745         21.72
     1.606106         19.61
     1.601456          6.29
     1.589775         34.19
     1.582076         10.99
     1.580040          6.35
     1.574118         24.07
     1.566176          0.48
     1.560965          3.37
     1.559733         12.64
     1.558256          1.74
     1.548556          5.04
     1.547797          2.90
     1.539309          5.31
     1.531964          7.39
     1.514068          4.86
     1.506985          0.31
     1.492475          6.26
     1.489432          1.89
     1.489188          3.51
     1.488088        114.77
     1.487521         42.19
     1.486263         61.45
     1.481946          0.62
     1.478408          0.33
     1.477423          0.13
     1.473956         49.00
     1.468306          8.99
     1.464227         19.13
     1.462228         10.14
     1.460877          3.58
     1.460555         16.83
     1.459605         33.61
     1.453805         21.88
     1.448775         18.88
     1.445075          2.56
     1.443784          7.61
     1.441014         11.06
     1.437114          6.66
     1.433295          2.60
     1.425819          0.15
     1.418257          3.45
     1.416428          0.83
     1.415067          7.58
     1.405607          1.54
     1.402304          1.86
     1.393025          0.24
     1.384831          4.63
     1.380531         14.22
     1.369536         21.24
     1.369192         12.27
     1.365121          3.28
     1.362222          4.64
     1.357561         18.58
     1.357187          1.43
     1.357050          5.77
     1.344994         14.28
     1.342249          0.36
     1.339054          2.54
     1.338596          5.30
     1.332234          3.04
     1.327818          0.19
     1.326151          5.62
     1.317047          0.35
     1.315919          4.19
     1.315231          0.12
     1.298104          0.33
     1.289569          2.36
     1.289250          4.56
     1.287668         13.02
     1.285693          1.24
     1.284837          1.91
     1.284093          1.37
     1.281724          3.18
     1.280988          6.41
     1.280235          1.72
     1.276277          2.81
     1.271943         32.60
     1.270665          7.23
     1.268986         27.27
     1.267311          1.35
     1.265863         25.40
     1.264209          2.12
     1.263058         33.79
     1.260604          5.26
     1.257447          7.81
     1.255309         23.16
     1.251591          0.45
     1.249906          4.46
     1.249866          4.72
     1.244951          5.94
     1.244301         22.73
     1.244059          3.80
     1.242881          2.99
     1.237775          2.71
     1.237281          3.49
     1.237056          2.95
     1.236935          1.82
     1.236806          9.20
     1.236613          0.23
     1.233138          2.87
     1.231860          4.02
     1.229517          5.54
     1.227935          0.73
     1.227369          0.57
     1.227052          9.14
     1.223546          2.96
     1.220360          0.69
     1.220012          1.83
     1.217886          0.32
     1.216504          1.38
     1.213485          2.32
     1.212693          2.98
     1.212269          1.26
     1.211603          0.00
     1.210569          6.15
     1.209666          3.02
     1.208947          2.17
     1.208759          7.06
     1.204469          2.42
     1.199527          2.68
     1.198247          0.27
     1.197595          7.53
     1.196007          2.45
     1.195313          1.52
     1.192362          1.57
     1.188333          2.18
     1.185765          1.12
     1.184576         10.15
     1.184079          7.03
     1.183902          2.68
     1.183158          0.27
     1.180298          0.34
     1.176330          6.56
     1.174724          1.84
     1.174254          1.94
     1.172105          1.13
     1.171855          0.65
     1.167484          0.38
     1.166376          6.51
     1.165410          3.06
     1.159462          5.72
     1.158469          3.82
     1.157795          1.21
     1.155743          4.01
     1.154893          0.51
     1.153482          0.23
     1.152593          4.70
     1.151651          2.46
     1.147217          1.21
     1.143829         10.61
     1.141374          1.76
     1.140064          2.19
     1.139459          4.71
     1.138794          3.75
     1.135240          7.71
     1.133786          2.95
     1.132253          4.30
     1.130682          1.93
     1.127336          2.23
     1.124730          7.02
     1.124570          1.33
     1.122584          3.56
     1.119459          1.09
     1.117888          1.28
     1.116029          2.90
     1.115747          1.87
     1.114550          1.03
     1.113902          0.15
     1.113427          3.11
     1.113206          0.68
     1.111459          0.34
     1.106150          0.91
     1.105700          0.79
     1.105587          1.78
     1.105193          1.98
     1.101848          0.02
     1.100905          5.79
     1.100436          0.89
     1.097071          7.26
     1.096671          2.23
     1.096559          0.04
     1.096409          0.40
     1.095029          0.09
     1.094402          0.62
     1.091818          6.70
     1.090354          0.66
     1.086159          1.39
     1.084177          0.36
     1.083848          0.83
     1.083522          0.10
     1.082371          1.38
     1.082362          0.44
     1.081078          5.08
     1.080930          2.70
     1.079259          0.28
     1.077637          0.72
     1.076905          0.18
     1.075678          0.48
     1.073167          2.05
     1.070113          0.71
     1.063898          0.90
     1.062425          0.34
     1.061524          0.01
     1.061328          2.50
##############################################################################
###                            Comments                                    ###
##############################################################################
###   Diffraction pattern calculated by Match!. 
###   I/Ic calculated by Match!. 
###   Space group has been derived from given symmetry operations. 
##############################################################################


