##############################################################################
###               Crystal structure data exported by Match!                ###
##############################################################################
###                           Data published by:                           ###
###                                                                        ###
###               COD (Crystallography Open Database)
##############################################################################
data_4124059
_citation_journal_full    'Journal of the American Chemical Society'
_citation_journal_volume  '126'
_citation_page_first  '9769'
_citation_page_last   '9775'
_citation_year  '2004'
_citation_title  'Chemical evaluation of hypothetical uninodal zeolites'
loop_
_publ_author_name
  'Foster M.D.'
  'Friedrichs O.D.'
  'Bell R.G.'
  'Paz F.A.A.'
  'Klinowski J.'
_chemical_formula_sum  'O2 Si'
_chemical_name_common  'Silica'
_symmetry_space_group_name_H-M 'P 6 2 2'
_space_group_IT_number 177
_space_group_crystal_system 'hexagonal'
loop_
_symmetry_equiv_pos_as_xyz
   'x, y, z'
   'x-y, x, z'
   '-y, x-y, z'
   '-x, -y, z'
   '-x+y, -x, z'
   'y, -x+y, z'
   'x-y, -y, -z'
   '-x, -x+y, -z'
   'y, x, -z'
   '-y, -x, -z'
   '-x+y, y, -z'
   'x, x-y, -z'
_cell_length_a       12.78345
_cell_length_b       12.78345
_cell_length_c        3.72082
_cell_angle_alpha    90.0000
_cell_angle_beta     90.0000
_cell_angle_gamma   120.0000
_cell_formula_units_Z 12
loop_
_atom_site_label
_atom_site_fract_x
_atom_site_fract_y
_atom_site_fract_z
_atom_site_occupancy
_atom_site_B_iso_or_equiv
si      0.522   0.870   0.165    1.00000    1.000
o      0.000   0.619   0.000    1.00000    1.000
o      0.793   0.585   0.000    1.00000    1.000
o      0.889   0.444   0.500    1.00000    1.000
o      0.785   0.392   0.000    1.00000    1.000
_cell_measurement_wavelength    1.541874
_cell_measurement_radiation   'x-rays'
_exptl_crystal_density_diffrn    2.273000
loop_
_pd_peak_d_spacing
_pd_peak_intensity
    11.070793       1000.00
     6.391725          0.78
     5.535396         49.56
     4.184366         16.81
     3.720820         78.41
     3.690264         14.92
     3.526949         21.06
     3.215648          0.04
     3.195863         22.32
     3.088019          3.70
     3.070485         10.97
     2.780519         95.94
     2.767698         22.25
     2.620147          2.22
     2.539814          0.02
     2.424357          4.91
     2.415845          9.03
     2.368238         33.87
     2.220706          5.30
     2.214159          2.46
     2.130575          0.56
     2.097705          3.72
     2.092183          3.00
     2.026218          4.10
     1.988373          3.44
     1.902749         13.80
     1.860410          2.33
     1.848916          2.46
     1.845132          1.68
     1.834685          0.82
     1.823659          3.43
     1.820027          2.08
     1.786282          0.02
     1.772746          2.47
     1.763474          0.00
     1.753676         14.43
     1.699960         16.10
     1.688280          0.20
     1.661241          0.20
     1.653042          1.95
     1.634917         19.06
     1.607824          1.07
     1.600387          2.65
     1.597931          1.21
     1.591131          7.46
     1.581542          1.18
     1.544010          0.03
     1.537420          4.22
     1.535243          4.03
     1.500841          0.62
     1.473996          6.80
     1.468260          0.82
     1.466362          2.67
     1.455515          3.10
     1.424361         10.39
     1.419183          9.91
     1.417470          0.56
     1.401353          4.95
     1.394789          0.71
     1.390260          1.27
     1.383849          2.95
     1.364243          1.01
     1.358495          0.65
     1.352513          0.57
     1.324606          0.39
     1.310074          3.10
     1.306041          1.62
     1.300996          8.37
     1.297047          3.16
     1.295738          0.78
     1.283393          0.44
     1.278345          9.29
     1.271139          5.19
     1.269907          1.25
     1.250230          1.54
     1.245561          0.02
     1.240273          0.53
     1.232563          0.45
     1.230088          0.84
     1.223663          1.08
     1.217563          0.01
     1.212179          0.00
     1.210265          0.98
     1.208982          7.01
     1.207922          0.09
     1.204977          1.52
     1.201837          3.24
     1.189136          0.03
     1.184119          3.13
     1.181139          0.97
     1.175650          1.33
     1.167920          0.08
     1.160534          3.59
     1.156253          1.34
     1.151639          0.75
     1.149998          1.25
     1.148897          0.43
     1.147988          0.11
     1.131825          0.35
     1.127496          0.28
     1.124069          0.42
     1.115980          1.06
     1.114487          0.01
     1.110353          0.18
     1.107895          1.27
     1.107079          0.00
     1.103361          4.83
     1.096964          1.22
     1.093969          3.06
     1.090838          0.68
     1.082074          6.33
     1.076038          2.45
     1.071883          0.60
     1.066893          0.45
     1.065288          0.35
     1.063266          0.80
     1.061106          0.48
     1.060390          0.21
     1.053591          0.02
     1.052334          0.01
     1.050793          0.76
     1.048852          0.27
     1.046780          2.50
     1.046092          0.00
     1.035010          0.90
     1.029340          1.83
     1.026080          0.00
     1.024919          0.81
     1.024140          0.01
     1.023495          1.12
     1.019785          0.45
     1.016246          0.03
     1.013109          0.36
     1.011241          1.36
     1.007048          1.63
     1.006436          0.05
##############################################################################
###                            Comments                                    ###
##############################################################################
###   Diffraction pattern calculated by Match!. 
###   I/Ic calculated by Match!. 
###   Space group has been derived from given symmetry operations. 
##############################################################################


