##############################################################################
###               Crystal structure data exported by Match!                ###
##############################################################################
###                           Data published by:                           ###
###                                                                        ###
###               COD (Crystallography Open Database)
##############################################################################
data_5000042
_citation_journal_full    'Vestnik Moskovskogo Universiteta, Geologiya'
_citation_journal_volume  '1987'
_citation_page_first  '77'
_citation_page_last   '79'
_citation_year  '1987'
loop_
_publ_author_name
  'Simonov M A'
  'Troyanov S I'
_chemical_formula_sum  'O4 S Sr'
_chemical_name_mineral  'Celestine'
_chemical_name_common  'Strontium sulfate'
_symmetry_space_group_name_H-M 'P n m a'
_space_group_IT_number 62
_space_group_crystal_system 'orthorhombic'
loop_
_symmetry_equiv_pos_as_xyz
   'x, y, z'
   '-x+0.5, -y, z+0.5'
   'x+0.5, -y+0.5, -z+0.5'
   '-x, y+0.5, -z'
   '-x, -y, -z'
   'x+0.5, y, -z+0.5'
   '-x+0.5, y+0.5, z+0.5'
   'x, -y+0.5, z'
_cell_length_a        8.38900
_cell_length_b        5.36500
_cell_length_c        6.88500
_cell_angle_alpha    90.0000
_cell_angle_beta     90.0000
_cell_angle_gamma    90.0000
_cell_formula_units_Z 4
loop_
_atom_site_label
_atom_site_fract_x
_atom_site_fract_y
_atom_site_fract_z
_atom_site_occupancy
_atom_site_B_iso_or_equiv
sr      0.184   0.250   0.158    1.00000    1.000
s      0.438   0.750   0.185    1.00000    1.000
o      0.594   0.750   0.094    1.00000    1.000
o      0.308   0.750   0.041    1.00000    1.000
o      0.422   0.975   0.310    1.00000    1.000
_cell_measurement_wavelength    1.541874
_cell_measurement_radiation   'x-rays'
_exptl_crystal_density_diffrn    3.937000
loop_
_pd_peak_d_spacing
_pd_peak_intensity
     5.322076          0.47
     4.231894         97.03
     4.194500         44.63
     3.778360        334.20
     3.582097         16.39
     3.442500        263.57
     3.304444        935.10
     3.184779        535.75
     2.979092       1000.00
     2.738602        642.04
     2.682500        497.77
     2.661038         13.11
     2.590801         61.70
     2.395424         35.36
     2.383907        159.02
     2.333014          2.08
     2.259877        139.15
     2.213657         42.59
     2.170489         65.74
     2.147171        260.28
     2.115947          8.70
     2.110048          0.01
     2.097250         12.42
     2.051690        474.75
     2.046310        385.92
     2.013338         33.47
     2.012066        321.02
     2.006237        376.23
     1.953308        146.45
     1.889180          7.29
     1.884978          0.12
     1.879147          0.00
     1.863548         54.49
     1.791048          1.24
     1.774025        172.08
     1.730897         33.40
     1.721250         29.74
     1.707370          4.28
     1.698880          0.54
     1.695190         28.12
     1.687327          0.24
     1.686124         39.87
     1.684331         78.45
     1.652222          0.48
     1.645057         69.51
     1.630097         17.43
     1.610249          5.01
     1.608553         36.59
     1.606609        119.76
     1.600019         96.34
     1.592389         10.98
     1.559692         17.32
     1.559317        114.90
     1.548179          6.98
     1.526566         19.48
     1.508207         10.75
     1.489546          0.67
     1.487484          0.72
     1.484290         17.24
     1.479711        189.53
     1.471761          3.57
     1.465816          0.17
     1.451926         56.54
     1.448668         34.24
     1.427539         91.95
     1.413990         22.29
     1.410631          0.03
     1.398167          1.42
     1.393055         37.06
     1.391102         75.02
     1.380196         74.61
     1.370199          1.29
     1.369301         11.39
     1.360784         49.64
     1.358816          1.16
     1.354448         40.40
     1.352976         51.71
     1.341250         80.01
     1.340884          0.24
     1.337046          0.08
     1.334960          0.49
     1.333769         41.69
     1.330519          0.79
     1.327586         85.70
     1.317224          0.06
     1.314663          1.49
     1.313244         51.91
     1.308304         15.17
     1.300584          0.04
     1.295400          0.13
     1.291398         33.88
     1.286302         18.82
     1.277526          4.81
     1.271057         55.75
     1.265501          0.69
     1.259453         40.36
     1.259214          7.02
     1.256086          5.40
     1.249744         14.46
     1.239858         19.77
     1.236103         50.02
     1.235344          3.83
     1.226812         24.68
     1.220231          4.64
     1.212171          5.72
     1.209067        101.73
     1.204718          8.51
     1.203842         12.03
     1.201451          0.77
     1.197712          0.15
     1.194032          0.19
     1.191954          1.17
     1.191100         10.99
     1.189255          8.82
     1.180676          0.04
     1.175903         29.98
     1.172412         16.03
     1.170496          0.41
     1.166507          5.39
     1.165515          0.43
     1.153084          4.13
     1.152932         18.61
     1.151067         46.71
     1.147500         20.92
     1.147117          3.78
     1.140979          5.93
     1.136913          0.52
     1.133660          9.73
     1.131806         35.33
     1.129939          1.39
     1.125455          0.38
     1.122077          7.29
     1.116237          5.10
     1.115022         74.62
     1.112214          0.18
     1.107431         12.43
     1.106829          3.82
     1.101481         22.27
     1.096495          1.15
     1.091042         21.56
     1.090847          0.08
     1.087650         30.78
     1.085244          3.85
     1.084000         45.15
     1.081931          0.04
     1.080635          1.81
     1.079722         32.53
     1.073586          0.19
     1.069886         52.73
     1.067482         17.12
     1.064415          0.00
     1.063700          6.74
     1.062312          0.62
     1.061593          0.26
     1.060202          1.37
     1.057974         10.08
     1.057794         57.46
     1.055906         27.60
     1.055024         18.88
     1.051835          7.16
     1.049659         18.05
     1.049088          3.60
     1.048625         26.33
     1.046778          0.02
     1.044065          6.60
     1.042788         47.10
     1.042080         29.57
     1.041401          3.14
     1.039526         23.39
     1.036670          1.08
     1.035720          8.15
     1.029151          1.26
     1.027876         29.85
     1.025845          5.11
     1.023155         12.30
     1.017843          7.49
     1.016839         14.18
     1.016417         12.18
     1.013732          1.54
     1.006669          0.07
##############################################################################
###                            Comments                                    ###
##############################################################################
###   Diffraction pattern calculated by Match!. 
###   I/Ic calculated by Match!. 
###   Space group has been derived from given symmetry operations. 
##############################################################################


