##############################################################################
###               Crystal structure data exported by Match!                ###
##############################################################################
###                           Data published by:                           ###
###                                                                        ###
###               COD (Crystallography Open Database)
##############################################################################
data_9010974
_citation_journal_full    'Acta Crystallographica'
_citation_journal_volume  '5'
_citation_page_first  '775'
_citation_page_last   '782'
_citation_year  '1952'
_citation_title  'The crystal structure of realgarlocality: Saimoko, Japan'
loop_
_publ_author_name
  'Ito T.'
  'Morimoto N.'
  'Sadanaga R.'
_chemical_formula_sum  'As S'
_chemical_name_mineral  'Realgar'
_symmetry_space_group_name_H-M 'P 1 21/n 1'
_space_group_IT_number 14
_space_group_crystal_system 'monoclinic'
loop_
_symmetry_equiv_pos_as_xyz
   'x, y, z'
   '-x+0.5, y+0.5, -z+0.5'
   '-x, -y, -z'
   'x+0.5, -y+0.5, z+0.5'
_cell_length_a        9.27000
_cell_length_b       13.50000
_cell_length_c        6.56000
_cell_angle_alpha    90.0000
_cell_angle_beta    106.6200
_cell_angle_gamma    90.0000
loop_
_atom_site_label
_atom_site_fract_x
_atom_site_fract_y
_atom_site_fract_z
_atom_site_occupancy
_atom_site_B_iso_or_equiv
as      0.118   0.024   -0.241    1.00000    1.299
as      0.425   -0.140   -0.142    1.00000    1.299
as      0.318   -0.127   0.181    1.00000    1.299
as      0.038   -0.161   -0.290    1.00000    1.299
s      0.346   0.008   -0.295    1.00000    1.299
s      0.213   0.024   0.120    1.00000    1.299
s      0.245   -0.225   -0.363    1.00000    1.299
s      0.115   -0.215   0.048    1.00000    1.299
_cell_measurement_wavelength    1.541874
_cell_measurement_radiation   'x-rays'
_exptl_crystal_density_diffrn    3.613000
loop_
_pd_peak_d_spacing
_pd_peak_intensity
     7.420491         90.35
     6.750000         47.70
     6.004425        435.30
     5.698486        405.89
     5.486245        262.71
     5.374349       1000.00
     4.600147         89.86
     4.553602         12.65
     4.486302         12.71
     4.441363          0.71
     4.314759          0.17
     4.218912         54.58
     4.048874        223.42
     4.014267         37.11
     3.774933         36.50
     3.710246         59.05
     3.659034         47.91
     3.600955          2.64
     3.593007        108.22
     3.375000          5.43
     3.200763         25.43
     3.179766         12.25
     3.161045        338.66
     3.154946        297.09
     3.142971        453.03
     3.131422         27.83
     3.087597         12.47
     3.061107         71.95
     3.033965        416.14
     3.002212          2.66
     2.973511        250.11
     2.960131         77.85
     2.944184        255.92
     2.942088          0.06
     2.930619        184.00
     2.905684        559.17
     2.892163         19.18
     2.849243        109.30
     2.767280        101.45
     2.743123          9.16
     2.711509        101.00
     2.711447        446.00
     2.687174         98.09
     2.673727        163.26
     2.646292          1.81
     2.641616         68.80
     2.618230          2.50
     2.583298        159.13
     2.576711         26.84
     2.529060         14.38
     2.515614         29.92
     2.505382        144.97
     2.497425         16.20
     2.480830          3.36
     2.473497        137.35
     2.462494        171.26
     2.424589        100.99
     2.386407         41.32
     2.385186         91.18
     2.349156         85.38
     2.332663          0.40
     2.329459         24.25
     2.322436          1.30
     2.307129          7.34
     2.300073          7.83
     2.281848         41.59
     2.278644          0.73
     2.278103          0.00
     2.276801         18.99
     2.256303          0.91
     2.250000        136.16
     2.245096          1.03
     2.243151          0.00
     2.225765         57.70
     2.220681         16.95
     2.218341        138.44
     2.191233         20.94
     2.187096         18.54
     2.183680        134.87
     2.181116        111.45
     2.157379         28.81
     2.155661         69.08
     2.134481          2.49
     2.122128        102.20
     2.121485          2.82
     2.120069        137.00
     2.118383          9.03
     2.109456         52.78
     2.106932         52.86
     2.096385         58.28
     2.082474          0.27
     2.077663          0.76
     2.070523         25.90
     2.068715          0.74
     2.056326          2.41
     2.048052          0.05
     2.045740         52.99
     2.034396         26.99
     2.031570          5.70
     2.024437         44.45
     2.017188          2.02
     2.016967          5.01
     2.007556          0.12
     2.007133         32.60
     2.001475         25.58
     2.001118          4.56
     1.995064         19.07
     1.991400          2.47
     1.987934         14.07
     1.979835          8.25
     1.969133         51.61
     1.964587         23.42
     1.937532          9.71
     1.920303          7.96
     1.919404          0.68
     1.918928         35.44
     1.918896          6.11
     1.908465          1.01
     1.907270          5.99
     1.901166         17.23
     1.899495          4.25
     1.887467          7.24
     1.884663          9.81
     1.882261          3.99
     1.855123         13.12
     1.853988         22.45
     1.853929         71.14
     1.853758          2.29
     1.853705         28.73
     1.847014         97.38
     1.844201        147.67
     1.843746         10.40
     1.836749         27.86
     1.836182          4.47
     1.833388          4.26
     1.829665         22.29
     1.829517         84.46
     1.828748          4.12
     1.811341          0.15
     1.807257        114.88
     1.803979          0.67
     1.800478          3.52
     1.796504         21.22
     1.791450         24.05
     1.787779        110.92
     1.787139         12.42
     1.780148         32.70
     1.775864          4.21
     1.772058         80.29
     1.768993          0.00
     1.766210         29.31
     1.764697          4.66
     1.761359          5.30
     1.756054         64.31
     1.755806         10.97
     1.751021         16.44
     1.741935          1.46
     1.740560         21.97
     1.735716         23.34
     1.721522         52.49
     1.721134          5.25
     1.718037         24.14
     1.715099          5.37
     1.714202         39.53
     1.701464         16.05
     1.697879        139.30
     1.687500         45.80
     1.687041         69.19
     1.680324          3.97
     1.673981          1.60
     1.673664         42.94
     1.669048        140.35
     1.668458         43.27
     1.662317        100.57
     1.661420          6.05
     1.657849         18.79
     1.656214          4.58
     1.655332         37.07
     1.655189         28.35
     1.654408          0.02
     1.652434          6.37
     1.649261         35.14
     1.643782          4.01
     1.635909         22.49
     1.629793          2.06
     1.627580         22.54
     1.624954         62.08
     1.624561          2.28
     1.624029          6.57
     1.622622         16.81
     1.617729          6.85
     1.616005         22.76
     1.612400         40.61
     1.609611         12.53
     1.607879          0.00
     1.602677          0.39
     1.600382         17.85
     1.599350          0.89
     1.598291          0.89
     1.594390          8.02
     1.590300         22.14
     1.589883          1.36
     1.588243          6.76
     1.583971          0.02
     1.583385         52.05
     1.582340          3.90
     1.580523          2.99
     1.578104          1.21
     1.577473          7.69
     1.574739          4.61
     1.574425          2.39
     1.572053          7.06
     1.571485          0.00
     1.568941         19.62
     1.568101          0.46
     1.567016         34.43
     1.565711         62.87
     1.564878          0.27
     1.560945          9.17
     1.556262          3.52
     1.554285          0.06
     1.553183         15.00
     1.551690         19.43
     1.546719          9.32
     1.543798         21.93
     1.538120         29.56
     1.537467          0.85
     1.533382          2.44
     1.532880          0.00
     1.532118          1.60
     1.530553          8.76
     1.529027         10.55
     1.528362         10.28
     1.517867          6.08
     1.516982          0.35
     1.515575          3.36
     1.509326         21.43
     1.508363          0.02
     1.507495         27.85
     1.507000          3.32
     1.504069         52.96
     1.502848          7.16
     1.501106         58.82
     1.499768          4.28
     1.499421          0.54
     1.498330          5.44
     1.495434         20.92
     1.494604         53.03
     1.491912         31.57
     1.486755         17.04
     1.486093          5.50
     1.484098          0.40
     1.483621          6.40
     1.480920          5.67
     1.480888          1.83
     1.480454          1.14
     1.480066          2.08
     1.479060          7.15
     1.474735          5.86
     1.472092         15.29
     1.471632          0.00
     1.471592         16.53
     1.471044          1.18
     1.467939         39.35
     1.467395          1.36
     1.466108          6.55
     1.465310          7.59
     1.463954          6.61
     1.460652          0.16
     1.459461         45.66
     1.459034          2.48
     1.456108          0.13
     1.455277          2.02
     1.452842         78.84
     1.452026          0.06
     1.447737          7.42
     1.446082          3.48
     1.445526          9.82
     1.445283         25.12
     1.442577         13.72
     1.441619         42.99
     1.438253          0.57
     1.437630         26.54
     1.437500         13.58
     1.435085         10.47
     1.434646         17.34
     1.430823          0.10
     1.427240          0.75
     1.424693          5.04
     1.424622         10.05
     1.423969          1.02
     1.421138         46.39
     1.418998         21.16
     1.414273          1.78
     1.407206          7.81
     1.407047          0.64
     1.406994          0.01
     1.406304          0.01
     1.403190          5.63
     1.403081         14.06
     1.399130         18.53
     1.395965         15.96
     1.395096          4.77
     1.394311          0.66
     1.388764          5.02
     1.385055         11.91
     1.384665          6.91
     1.384311          0.00
     1.383640          2.54
     1.383613          8.76
     1.382572          3.55
     1.378798         13.85
     1.376053          0.41
     1.372890          0.33
     1.371561          0.95
     1.369442          0.03
     1.364028          2.12
     1.363881          0.07
     1.363531         36.25
     1.363442          0.00
     1.363006          3.61
     1.362315          3.89
     1.360773          1.99
     1.359647          0.09
     1.358185          8.57
     1.357718         31.78
     1.356973          7.27
     1.355754          0.93
     1.355723          4.71
     1.353791          0.14
     1.353731          2.59
     1.352865          1.25
     1.350214          2.48
     1.350000          3.55
     1.349625          5.57
     1.344638          0.35
     1.343587          4.60
     1.341838         17.10
     1.339576          0.88
     1.338089          0.22
     1.337523          0.41
     1.336864          2.16
     1.336557          2.05
     1.335261          2.09
     1.334674          1.06
     1.330399          1.82
     1.328903          0.16
     1.326671          1.84
     1.324636          3.13
     1.323146          0.02
     1.323121          0.01
     1.322535         12.96
     1.320808         29.17
     1.319904         18.68
     1.319732          0.13
     1.319209          8.54
     1.318254          5.25
     1.317120          5.87
     1.317073          6.61
     1.314379          0.06
     1.314267          6.39
     1.312955          0.11
     1.311975         17.37
     1.309115          0.79
     1.308217          2.71
     1.308013          0.26
     1.306652          0.61
     1.305841         16.17
     1.305247          0.82
     1.304755          0.80
     1.303577          0.02
     1.300887          2.34
     1.299229         22.97
     1.298492          0.00
     1.298119          0.00
     1.297953          5.35
     1.297334          3.46
     1.295583          0.09
     1.294714          1.01
     1.294317          3.42
     1.292859          2.86
     1.292527          0.00
     1.291649          7.77
     1.291384          3.57
     1.290170          5.82
     1.290137          2.34
     1.288356          2.91
     1.287910          0.27
     1.287891         11.14
     1.286489          3.06
     1.286004          0.05
     1.282136          1.15
     1.281630          0.06
     1.275618          4.38
     1.275113          2.19
     1.274837          0.00
     1.274016          3.43
     1.272440          6.49
     1.269760         13.56
     1.269190         15.01
     1.267604          1.60
     1.265932          0.72
     1.264530          0.11
     1.263392          0.83
     1.261953          1.58
     1.261684          2.42
     1.259552          7.41
     1.259055          0.02
     1.258331          1.99
     1.258311          1.54
     1.257807          3.36
     1.256254          5.26
     1.253856         12.28
     1.253143          0.25
     1.252691          0.10
     1.252594          1.76
     1.251772          1.16
     1.250850          0.38
     1.248746          0.79
     1.248712          8.96
     1.247960          0.01
     1.247942          0.39
     1.247591          0.12
     1.247541          0.91
     1.247114         13.56
     1.246564          1.66
     1.244962          0.23
     1.244678          0.68
     1.243003          0.02
     1.242815          0.39
     1.240415          2.72
     1.237940          4.23
     1.236749          0.04
     1.236503         10.77
     1.236401          2.29
     1.235934          2.62
     1.235759          0.03
     1.235046          3.30
     1.234554          0.09
     1.233408          4.54
     1.233063          2.88
     1.232055          4.99
     1.231247          0.00
     1.231098          0.85
     1.229572          0.84
     1.228831          2.22
     1.228682          0.48
     1.228348          2.75
     1.227311         22.76
     1.226566         12.44
     1.226357          0.10
     1.224900          0.91
     1.224797          0.24
     1.224629          1.86
     1.223511         11.90
     1.222846          0.01
     1.221330          6.43
     1.219678          0.89
     1.218253          0.04
     1.217378          8.48
     1.215724          3.06
     1.212709         13.45
     1.212491          1.88
     1.212294          4.12
     1.211892         21.52
     1.210950          3.35
     1.210823          0.01
     1.209988          0.36
     1.209929          1.00
     1.207436          0.06
     1.204770          2.44
     1.204530          4.97
     1.203276          1.85
     1.202896          8.36
     1.202711          0.38
     1.202413          4.62
     1.200885          0.24
     1.200318          9.58
     1.198141          0.10
     1.197669          5.05
     1.196688          0.86
     1.196162          8.19
     1.193450          0.07
     1.193203          0.69
     1.193080          4.16
     1.192757          8.66
     1.192593          3.15
     1.192327          6.86
     1.192014          1.35
     1.187779          0.16
     1.185293          3.52
     1.184989          6.04
     1.184572          0.04
     1.183856          7.54
     1.183117         12.74
     1.182940          7.34
     1.182320          0.00
     1.182107          3.16
     1.181804          0.79
     1.180118          0.10
##############################################################################
###                            Comments                                    ###
##############################################################################
###   Diffraction pattern calculated by Match!. 
###   I/Ic calculated by Match!. 
##############################################################################


