##############################################################################
###               Crystal structure data exported by Match!                ###
##############################################################################
###                           Data published by:                           ###
###                                                                        ###
###               COD (Crystallography Open Database)
##############################################################################
data_9013577
_citation_journal_full    'American Mineralogist'
_citation_journal_volume  '94'
_citation_page_first  '451'
_citation_page_last   '460'
_citation_year  '2009'
_citation_title  'Molecular conformation and anion configuration variations for As4S4 andAs4Se4 in an anion-substituted solid solution Locality: synthetic Note:S1Se1-9'
loop_
_publ_author_name
  'Kyono A.'
_chemical_formula_sum  'As S0.587 Se0.413'
_chemical_name_mineral  'Realgar'
_symmetry_space_group_name_H-M 'P 1 21/n 1'
_space_group_IT_number 14
_space_group_crystal_system 'monoclinic'
loop_
_symmetry_equiv_pos_as_xyz
   'x, y, z'
   '-x+0.5, y+0.5, -z+0.5'
   '-x, -y, -z'
   'x+0.5, -y+0.5, z+0.5'
_cell_length_a        9.45980
_cell_length_b       13.65310
_cell_length_c        6.66040
_cell_angle_alpha    90.0000
_cell_angle_beta    106.5110
_cell_angle_gamma    90.0000
loop_
_atom_site_label
_atom_site_fract_x
_atom_site_fract_y
_atom_site_fract_z
_atom_site_occupancy
_atom_site_B_iso_or_equiv
as      0.119   -0.020   0.760    1.00000    1.831
as      0.424   0.140   0.859    1.00000    1.792
as      0.322   0.129   0.177    1.00000    1.776
as      0.040   0.161   0.709    1.00000    1.981
s      0.344   -0.009   0.698    0.54700    2.100
se      0.344   -0.009   0.698    0.45300    2.100
s      0.214   -0.025   0.118    0.50900    1.989
se      0.214   -0.025   0.118    0.49100    1.989
s      0.241   0.229   0.640    0.70100    2.202
se      0.241   0.229   0.640    0.29900    2.202
s      0.108   0.214   0.054    0.59300    2.179
se      0.108   0.214   0.054    0.40690    2.179
_cell_measurement_wavelength    1.541874
_cell_measurement_radiation   'x-rays'
_exptl_crystal_density_diffrn    4.070000
loop_
_pd_peak_d_spacing
_pd_peak_intensity
     7.554718         69.37
     6.826550         89.81
     6.101004        362.56
     5.784342        574.01
     5.570166        258.09
     5.454231       1000.00
     4.663463        111.82
     4.637705         68.74
     4.549025         12.26
     4.534863         37.47
     4.391279          0.41
     4.303676         11.23
     4.120918        152.52
     4.067663         13.02
     3.836177         26.75
     3.777359        121.71
     3.706132         58.14
     3.651976         73.00
     3.647909          6.74
     3.413275         21.64
     3.248276          6.64
     3.227731        101.19
     3.212334        402.41
     3.194542        454.04
     3.192880        440.08
     3.192070          0.58
     3.134152          7.97
     3.108997        135.29
     3.093585        446.51
     3.050502         11.84
     3.017104        131.49
     3.010237        180.30
     2.987015        245.54
     2.978787          0.09
     2.977098        217.90
     2.958686        493.82
     2.951743         24.39
     2.892171        162.31
     2.817754        244.50
     2.785083         34.55
     2.764291        158.61
     2.749003        583.99
     2.727115        188.94
     2.719224        243.29
     2.683152          0.58
     2.678790        100.64
     2.662563         28.38
     2.614689        183.07
     2.613777         79.16
     2.570573         19.46
     2.558459         54.00
     2.548384        206.00
     2.533928          0.00
     2.518239        116.44
     2.510708          0.01
     2.492373        189.29
     2.474048         69.57
     2.434402         93.52
     2.424815         91.94
     2.380585         90.55
     2.369174          6.00
     2.366169         12.03
     2.353047          1.19
     2.339276         18.42
     2.331732          1.78
     2.326004         53.69
     2.324092          6.06
     2.318852         17.21
     2.308561          2.98
     2.292204          1.22
     2.286114          0.62
     2.275517        173.72
     2.274512          2.77
     2.267432         24.93
     2.263145         51.22
     2.253608         72.59
     2.236795         28.06
     2.229219         34.92
     2.217179        170.92
     2.207112        110.42
     2.195639         42.26
     2.188510         62.28
     2.173627          1.38
     2.161256        102.59
     2.153101          7.74
     2.152582        140.91
     2.151838         48.87
     2.143492          4.56
     2.134676         39.03
     2.132049         46.73
     2.109424         12.75
     2.108745          0.54
     2.103180         19.61
     2.099375          0.21
     2.094022          2.04
     2.076547         60.69
     2.075210          0.13
     2.066115          6.75
     2.065256         11.15
     2.060459         56.88
     2.047198          7.42
     2.042862          2.87
     2.034565          0.46
     2.033832         22.04
     2.033668         36.30
     2.032092          2.51
     2.029493          2.78
     2.026417         18.96
     2.013548         14.57
     2.011476         11.39
     2.003176         65.03
     1.993220         23.34
     1.965964         11.06
     1.952521          0.75
     1.952295          0.10
     1.949021          6.89
     1.947542          1.55
     1.946277         54.12
     1.940354          4.18
     1.932856         34.64
     1.928114          4.22
     1.918293          3.30
     1.918089          9.60
     1.906849         18.20
     1.891960         18.62
     1.890691         25.65
     1.888679          8.92
     1.880668          0.01
     1.877305         54.07
     1.877244        148.55
     1.874052         24.70
     1.870211        169.44
     1.865371          6.96
     1.863895         22.31
     1.859341          2.42
     1.857815          2.51
     1.856722          6.45
     1.853066        102.30
     1.837157          1.01
     1.833430          1.85
     1.833040        161.16
     1.825988         23.53
     1.823955          6.18
     1.823233        211.36
     1.818077         11.18
     1.817252          6.70
     1.806157         43.02
     1.806085        141.00
     1.798284          3.09
     1.798145          2.10
     1.797912          7.78
     1.794353         39.50
     1.791747          0.03
     1.784896         71.40
     1.782684         19.67
     1.777832         16.94
     1.770804          0.39
     1.767519         20.52
     1.759531         27.88
     1.753239          9.37
     1.753110         18.43
     1.747076         81.11
     1.747011         28.02
     1.744427          3.59
     1.731403         15.72
     1.721231        142.15
     1.710606         79.93
     1.706638         64.05
     1.704693          1.64
     1.703587          8.98
     1.700724         73.07
     1.694818        170.13
     1.694670         43.25
     1.691090        110.42
     1.685145         34.92
     1.685030          2.14
     1.684975          3.13
     1.681952          6.31
     1.678782         44.24
     1.677203         35.54
     1.676845          0.19
     1.674828         41.61
     1.664454         13.17
     1.660948         51.33
     1.654756         72.93
     1.649896         13.69
     1.648792          5.08
     1.648770          2.60
     1.643545          9.01
     1.643262         32.90
     1.642583          3.99
     1.641530         10.25
     1.638959         30.55
     1.637589         61.96
     1.631024          0.66
     1.629793          0.41
     1.629738          0.01
     1.627766          3.71
     1.627560          5.40
     1.624138          9.89
     1.616320         26.55
     1.616118         62.76
     1.615261         25.50
     1.613865          3.36
     1.608041          0.07
     1.606167          8.75
     1.602566          1.14
     1.601897          1.74
     1.601799          7.89
     1.601634          0.27
     1.597271         12.57
     1.596440          2.20
     1.596378         21.89
     1.596035         82.01
     1.595681          7.88
     1.588260          0.66
     1.588006         37.27
     1.587390          0.21
     1.585637          5.91
     1.583376          5.42
     1.583186         18.25
     1.580150          0.32
     1.574119         18.41
     1.570440          7.34
     1.567076         35.93
     1.564333          0.01
     1.560283          0.28
     1.558921         33.81
     1.555147          7.17
     1.555018          4.12
     1.554498          6.52
     1.554488          2.34
     1.554078          8.31
     1.546792          0.69
     1.545902          3.73
     1.544153          5.65
     1.536960         24.49
     1.536086          0.09
     1.534409         61.30
     1.532680          2.97
     1.532508          4.61
     1.531697         10.58
     1.525251         63.35
     1.522227          0.00
     1.520938          4.00
     1.518020          3.00
     1.516342         22.78
     1.515822         35.53
     1.514262         66.38
     1.511621          1.80
     1.511026          5.89
     1.510944          1.79
     1.508552          4.31
     1.507726         15.72
     1.506443          6.75
     1.505118         25.50
     1.503058          4.29
     1.502441          0.01
     1.496226          3.10
     1.494328          6.66
     1.493507         33.88
     1.492637         21.31
     1.492128         38.55
     1.489393          0.16
     1.488888          0.22
     1.488549         15.85
     1.488382          3.53
     1.488139         44.93
     1.486188          8.95
     1.481795          3.10
     1.479343         75.88
     1.478651          1.37
     1.475935          2.33
     1.475871         11.56
     1.475203          0.45
     1.472184          1.99
     1.470695         11.64
     1.469245         26.43
     1.469094         53.79
     1.466093         10.57
     1.464516         17.68
     1.464445          6.16
     1.463760          0.75
     1.458892         31.81
     1.454796          4.03
     1.453692          4.99
     1.453532         14.17
     1.447982          2.10
     1.446193          5.08
     1.446085          5.97
     1.441835          0.42
     1.438649         45.84
     1.438033         21.83
     1.434559          0.03
     1.432881          2.59
     1.431416          3.88
     1.429871          4.74
     1.427740          0.40
     1.425734         15.14
     1.425573         10.26
     1.419049         18.59
     1.418486         10.14
     1.418418          1.34
     1.415084          2.74
     1.409778          5.85
     1.408877          2.41
     1.408204          0.30
     1.407674          3.20
     1.406882          4.81
     1.406682          7.27
     1.406483         14.57
     1.404820         10.59
     1.398188          0.12
     1.398058          0.09
     1.392542          4.90
     1.389257          0.98
     1.387408          0.23
     1.385220          2.37
     1.384962          0.00
     1.384805          1.18
     1.384615         32.01
     1.382626          3.06
     1.382146          1.28
     1.380299          9.52
     1.379929         40.81
     1.379905          1.56
     1.378283          5.57
     1.378184          8.94
     1.377105          0.29
     1.374577          0.29
     1.374502          6.82
     1.374104          1.50
     1.373639          0.01
     1.370217          4.65
     1.365310          1.40
     1.364127          0.01
     1.363558          6.11
     1.362917          0.96
     1.362060          0.01
     1.359612          2.03
     1.358320          8.74
     1.358023          2.41
     1.357685          2.34
     1.355888          0.32
     1.352393          2.25
     1.350507          0.10
     1.350330          4.93
     1.350099          0.30
     1.346568          5.19
     1.345862         18.48
     1.345275          0.11
     1.343785          2.02
     1.342990          2.62
     1.341576          0.77
     1.340066          0.01
     1.339395         34.66
     1.338225          0.04
     1.335936          4.21
     1.335135         12.95
     1.334243          5.36
     1.332356          4.34
     1.331600          9.82
     1.331509         11.10
     1.331281          0.12
     1.331076          0.21
     1.328345          0.05
     1.328289          0.92
     1.327416          1.08
     1.327109          0.93
     1.325780          8.75
     1.325317         25.52
     1.323908          0.14
     1.323797          1.01
     1.322501          0.73
     1.321111          0.03
     1.318445          0.03
     1.317429          1.80
     1.316318          5.88
     1.315531          3.67
     1.315452          0.02
     1.312340          0.00
     1.311638          0.32
     1.311338          1.13
     1.309733          8.16
     1.309513          2.22
     1.307417          9.88
     1.307344          4.53
     1.307301          0.75
     1.306888          2.67
     1.306506          0.01
     1.306346          0.87
     1.301909          5.67
     1.300695          0.00
     1.296985          0.26
     1.294883          1.97
     1.294522          2.68
     1.293561          3.96
     1.293252          9.74
     1.291232          1.74
     1.291172         13.81
     1.289880          0.30
     1.289256         10.14
     1.286020          1.44
     1.285286          0.01
     1.284968          0.19
     1.283658          0.06
     1.280663          1.50
     1.280069          5.51
     1.279230          2.73
     1.278726          3.76
     1.278437          5.03
     1.275874          0.30
     1.274479          1.18
     1.274317          0.06
     1.274192          0.00
     1.273429          8.77
     1.272950          8.80
     1.271601          4.79
     1.271217          1.04
     1.269482          0.99
     1.267243          0.21
     1.266964         13.28
     1.266373          0.12
     1.265473          3.02
     1.265001          0.07
     1.264558          1.49
     1.262810          0.35
     1.261750          0.27
     1.260845          0.12
     1.260645          0.00
     1.259120          0.78
     1.258141          0.79
     1.257130          2.06
     1.255925          0.44
     1.255783         11.09
     1.255641          2.29
     1.255371          2.44
     1.255354          1.27
     1.253031          1.23
     1.252614          0.93
     1.252002          1.20
     1.249729          0.16
     1.249636          2.76
     1.249240          6.98
     1.249073          1.41
     1.249020         19.67
     1.247855          0.51
     1.247322         10.89
     1.246187          0.01
     1.246156          6.56
     1.245162          0.63
     1.244307          0.71
     1.243339          0.80
     1.243026          0.62
     1.242980          7.63
     1.241668          0.83
     1.240923          0.31
     1.237024          8.37
     1.236905          5.55
     1.235454          3.23
     1.235383          0.00
     1.235377          0.00
     1.232253          0.32
     1.231977          0.82
     1.231304         12.85
     1.229882         18.91
     1.229729          2.58
     1.229650          0.27
     1.229057          5.16
     1.225228          0.37
     1.225048          1.65
     1.224351          3.33
     1.223680          0.02
     1.220281         10.59
     1.220201          0.03
     1.220027          0.30
     1.218389          5.79
     1.217790          0.15
     1.217325          1.03
     1.217201          2.62
     1.216276          3.56
     1.215970         14.11
     1.215357          6.94
     1.215185          0.68
     1.212974          0.36
     1.212407          1.63
     1.211942          4.97
     1.211513          7.36
     1.211337          0.32
     1.208176          4.05
     1.207704          4.49
     1.204825          0.19
     1.203437          1.25
     1.201496          0.00
     1.201408          6.39
     1.201164          1.27
     1.201138         13.62
     1.201014          0.77
     1.200998          0.40
     1.200161          0.53
##############################################################################
###                            Comments                                    ###
##############################################################################
###   Diffraction pattern calculated by Match!. 
###   I/Ic calculated by Match!. 
##############################################################################


