##############################################################################
###               Crystal structure data exported by Match!                ###
##############################################################################
###                           Data published by:                           ###
###                                                                        ###
###               COD (Crystallography Open Database)
##############################################################################
data_9007170
_citation_journal_full    'Physics and Chemistry of Minerals'
_citation_journal_volume  '30'
_citation_page_first  '167'
_citation_page_last   '176'
_citation_year  '2003'
_citation_title  'Compression mechanisms of coesiteSample: X1P7, P = 7.814 GPa'
loop_
_publ_author_name
  'Angel R. J.'
  'Shaw C. S. J.'
  'Gibbs G. V.'
_chemical_formula_sum  'O2 Si'
_chemical_name_mineral  'Coesite'
_symmetry_space_group_name_H-M 'C 1 2/c 1'
_space_group_IT_number 15
_space_group_crystal_system 'monoclinic'
loop_
_symmetry_equiv_pos_as_xyz
   'x, y, z'
   'x+0.5, y+0.5, z'
   '-x, y, -z+0.5'
   '-x+0.5, y+0.5, -z+0.5'
   '-x, -y, -z'
   '-x+0.5, -y+0.5, -z'
   'x, -y, z+0.5'
   'x+0.5, -y+0.5, z+0.5'
_cell_length_a        6.91260
_cell_length_b       12.16100
_cell_length_c        7.07460
_cell_angle_alpha    90.0000
_cell_angle_beta    120.9100
_cell_angle_gamma    90.0000
loop_
_atom_site_label
_atom_site_fract_x
_atom_site_fract_y
_atom_site_fract_z
_atom_site_occupancy
_atom_site_B_iso_or_equiv
si      0.135   0.111   0.069    1.00000    0.450
si      0.509   0.157   0.546    1.00000    0.430
o      0.000   0.000   0.000    1.00000    0.829
o      0.500   0.106   0.750    1.00000    0.589
o      0.247   0.133   0.922    1.00000    0.739
o      0.322   0.100   0.324    1.00000    0.769
o      0.032   0.212   0.469    1.00000    0.709
_cell_measurement_wavelength    1.541874
_cell_measurement_radiation   'x-rays'
_cell_measurement_pressure       7810000.000000
_exptl_crystal_density_diffrn    3.129000
loop_
_pd_peak_d_spacing
_pd_peak_intensity
     6.080500         74.59
     5.439729          4.56
     5.330686          4.13
     4.295786         18.30
     3.396524         75.81
     3.373132        135.42
     3.346645        288.11
     3.317292        678.90
     3.041064        924.04
     3.040250       1000.00
     3.034916        743.65
     3.003816        792.97
     2.965420        189.19
     2.719864          6.86
     2.718326         62.24
     2.715463         98.37
     2.665343         84.25
     2.665230        112.98
     2.626429        251.74
     2.282353        133.60
     2.271233         92.03
     2.258324         19.90
     2.250324         32.11
     2.236284          1.14
     2.231396         97.92
     2.213215         73.88
     2.162642         27.82
     2.150069         51.84
     2.147893         21.25
     2.122831         37.32
     2.108255         12.23
     2.026833          1.29
     2.008254         21.96
     2.004152          5.70
     1.999777          9.66
     1.987497        121.18
     1.983972         40.79
     1.980556          2.25
     1.967811          0.76
     1.951331         36.64
     1.922485          0.00
     1.919786          0.04
     1.841297          6.60
     1.813243        109.01
     1.807380         13.36
     1.776895        120.82
     1.768645        144.47
     1.748193        126.90
     1.727409          2.62
     1.724028          0.04
     1.698262          0.00
     1.686566          7.61
     1.685515         67.77
     1.684377         37.57
     1.679700          9.20
     1.677626         10.43
     1.675680         22.09
     1.673322         66.50
     1.670476         12.45
     1.667230         40.11
     1.661656         20.06
     1.661496          1.36
     1.659488          4.09
     1.658646         26.53
     1.655010        123.87
     1.651969          0.65
     1.632154          8.69
     1.614311        162.72
     1.591309          6.24
     1.564546          1.55
     1.562870         10.38
     1.559366         41.99
     1.557302          1.04
     1.551482         27.59
     1.544536         39.64
     1.534094         36.44
     1.528775         49.43
     1.525909         23.17
     1.524652          0.58
     1.520532         31.81
     1.520125         45.73
     1.517458         10.15
     1.505228         16.96
     1.501908         13.49
     1.499684         60.20
     1.482710         22.34
     1.475109          1.11
     1.474585         29.49
     1.472302          1.62
     1.466674          2.65
     1.449359          3.61
     1.440501         12.68
     1.431929          0.01
     1.396046         13.02
     1.391392         19.83
     1.391148          1.85
     1.389969          1.91
     1.388861          9.59
     1.380753          5.56
     1.379600         13.89
     1.377024         27.41
     1.375271          1.55
     1.368846         14.91
     1.368538          1.86
     1.363775          2.28
     1.359977         15.68
     1.359932          7.27
     1.359714          3.96
     1.359163          8.83
     1.357776         35.97
     1.357732          2.68
     1.352745          3.58
     1.340767          1.34
     1.332671          0.17
     1.332615          1.46
     1.327806         14.68
     1.323310        139.67
     1.319195         53.39
     1.319062          3.17
     1.317462         69.09
     1.314707         83.82
     1.313215         47.94
     1.311942         42.60
     1.308981         11.67
     1.304998         34.25
     1.304338          2.33
     1.302226         70.20
     1.296658         59.11
     1.294750         45.34
     1.290879         71.91
     1.288908          3.23
     1.279027         12.67
     1.275077          2.53
     1.270495         25.41
     1.266720         70.43
     1.264761         44.47
     1.262263         94.34
     1.259190          6.02
     1.258070          8.21
     1.254825         59.48
     1.252526          4.03
     1.252234          7.60
     1.234626          0.38
     1.220933          0.69
     1.216818          3.66
     1.216308          1.82
     1.216100          4.55
     1.215331         60.45
     1.214733          4.68
     1.213570          0.55
     1.212787          9.41
     1.210385         14.34
     1.204160          4.77
     1.198680          0.83
     1.196687         43.21
     1.195270          1.81
     1.192711          5.22
     1.192404          0.67
     1.191526          0.26
     1.191226         40.82
     1.190472          6.79
     1.180565         16.57
     1.173594         33.72
     1.167746         32.81
     1.166584          3.05
     1.165099          3.70
     1.161767         22.10
     1.161080         41.30
     1.159912         24.59
     1.158495          0.01
     1.157864         34.11
     1.156973          0.01
     1.155956          5.07
     1.154463          1.22
     1.152829         16.98
     1.147109          1.49
     1.144253          0.11
     1.143902          0.51
     1.141177          3.31
     1.140200         12.01
     1.138430         26.86
     1.137645          0.18
     1.137541          0.28
     1.136581          1.61
     1.135617          0.55
     1.134967          2.22
     1.132175          4.03
     1.131491         12.68
     1.129162          1.85
     1.128847          1.59
     1.127412          4.38
     1.125489          1.83
     1.125402          0.23
     1.125162          2.95
     1.124377          0.99
     1.123843          8.48
     1.118142          0.38
     1.117607          0.67
     1.115698          1.00
     1.115548          4.12
     1.113815         40.27
     1.106608          1.35
     1.105764          6.59
     1.105125          2.37
     1.092610         17.24
     1.092098          0.06
     1.091354         12.64
     1.090389          0.00
     1.087946          6.85
     1.087722          2.22
     1.086825          0.03
     1.081321          0.07
     1.080564         12.33
     1.080490          2.62
     1.079422          2.97
     1.076935          1.49
     1.076488          4.92
     1.075057         18.18
     1.075035          0.53
     1.073969         16.15
     1.073947          0.08
     1.070335         15.70
     1.069585          6.66
     1.066137         12.70
     1.065406          2.45
     1.063291          2.89
     1.061589          0.40
     1.061415          0.72
     1.060994         23.59
     1.058487          3.24
     1.056930          0.31
     1.056810         16.53
     1.056667         11.53
     1.056293         21.82
     1.055414          1.66
     1.055209          4.07
     1.054127          0.01
     1.052756          5.30
     1.050852          5.40
     1.050578          0.64
     1.050357         21.56
     1.049329          0.33
     1.047975          0.00
     1.044659          0.57
     1.042312          7.73
     1.041451          2.17
     1.039166          3.92
     1.038903          1.04
     1.031619         19.15
     1.030638          1.46
     1.023807          0.00
     1.019566          6.79
     1.013688          0.22
     1.013417          0.11
     1.011639          4.48
##############################################################################
###                            Comments                                    ###
##############################################################################
###   Diffraction pattern calculated by Match!. 
###   I/Ic calculated by Match!. 
###   Space group has been derived from given symmetry operations. 
##############################################################################


