##############################################################################
###               Crystal structure data exported by Match!                ###
##############################################################################

data_2104365
_citation_journal_full    'Acta Crystallographica Section B'
_citation_journal_volume  '65(3)'
_citation_page_first  '334'
_citation_page_last   '341'
_citation_year  '2009'
_citation_title  'Structures of the pseudo-trigonal polymorphs of Cu~2~(OH)~3~Cl'
loop_
_publ_author_name
  'Malcherek Thomas'
  'Schl?ter Jochen'
_chemical_formula_sum  'Cl Cu2 H3 O3'
_chemical_name_common  'Copper(II) chloride hydroxide'
_symmetry_space_group_name_H-M 'P -1'
_space_group_IT_number 2
_space_group_crystal_system 'triclinic'
loop_
_symmetry_equiv_pos_as_xyz
   'x, y, z'
   '-x, -y, -z'
_cell_length_a        9.16460
_cell_length_b        9.20290
_cell_length_c        9.21020
_cell_angle_alpha    95.8580
_cell_angle_beta     96.2900
_cell_angle_gamma    96.5070
_cell_formula_units_Z 8
loop_
_atom_site_label
_atom_site_fract_x
_atom_site_fract_y
_atom_site_fract_z
_atom_site_occupancy
_atom_site_B_iso_or_equiv
cu      0.500   0.500   0.500    1.00000    0.836
cu      0.500   0.000   0.000    1.00000    1.239
cu      0.000   0.000   0.500    1.00000    0.860
cu      0.000   0.500   0.000    1.00000    1.097
cu      0.749   0.240   1.003    1.00000    1.113
cu      0.251   0.002   0.739    1.00000    1.034
cu      1.001   0.750   0.248    1.00000    1.042
cu      0.500   0.250   0.252    1.00000    1.018
cu      0.247   0.260   0.498    1.00000    1.121
cu      0.251   0.502   0.239    1.00000    1.050
cl      0.194   0.193   0.195    1.00000    1.405
cl      0.807   0.308   0.304    1.00000    1.429
cl      0.307   0.304   0.808    1.00000    1.342
cl      0.306   0.804   0.309    1.00000    1.342
o      0.549   0.050   0.263    1.00000    1.389
o      0.045   0.253   0.551    1.00000    1.523
o      0.228   0.546   0.034    1.00000    1.602
o      0.951   0.246   0.953    1.00000    1.681
o      0.278   0.972   0.951    1.00000    0.986
o      0.961   0.961   0.278    1.00000    1.310
o      0.539   0.220   0.040    1.00000    1.310
o      0.222   0.044   0.532    1.00000    1.279
o      0.039   0.539   0.217    1.00000    0.939
o      0.454   0.452   0.247    1.00000    1.515
o      0.458   0.280   0.462    1.00000    1.279
o      0.272   0.470   0.450    1.00000    0.986
h      0.510   0.214   0.524    1.00000    3.789
h      0.537   0.531   0.285    1.00000    3.789
h      0.231   0.549   0.502    1.00000    3.789
h      0.462   0.266   -0.013    1.00000    3.789
h      0.497   -0.021   0.320    1.00000    3.789
h      0.246   1.069   0.996    1.00000    3.789
h      1.040   0.211   1.001    1.00000    3.789
h      -0.036   0.458   0.203    1.00000    3.789
h      0.246   0.440   0.006    1.00000    3.789
h      0.285   -0.012   0.471    1.00000    3.789
h      1.062   1.020   0.286    1.00000    3.789
h      -0.012   0.315   0.494    1.00000    3.789
_cell_measurement_wavelength    1.541874
_cell_measurement_radiation   'x-rays'
_cell_measurement_temperature    294.000000
_exptl_crystal_density_diffrn    3.722000
_exptl_crystal_colour            'green'
loop_
_pd_peak_d_spacing
_pd_peak_intensity
     9.093040          0.11
     9.081974          0.00
     9.036925          0.00
     6.851827          0.00
     6.842811          0.17
     6.834135          0.17
     6.082934          0.14
     6.049826          0.08
     6.037117          0.12
     5.486621        943.38
     5.457873        944.59
     5.444000       1000.00
     4.697283        451.42
     4.546520         20.87
     4.540987         22.58
     4.518462         23.31
     4.279472          0.75
     4.277383          0.83
     4.268423          0.01
     4.265297          0.02
     4.264987          0.12
     4.259805          0.00
     3.955845          0.01
     3.950817          0.00
     3.945631          0.11
     3.889083          0.01
     3.886484          0.06
     3.875274          0.52
     3.866883          0.44
     3.862187          0.13
     3.856416          0.00
     3.797951          0.02
     3.797874          0.13
     3.778874          0.02
     3.773734          1.82
     3.769588          0.01
     3.764560          1.32
     3.425914         49.58
     3.421406         48.07
     3.417068         46.75
     3.382650          0.02
     3.379285          0.01
     3.368934          0.01
     3.211718          0.00
     3.210347          0.25
     3.200157          0.02
     3.199007          4.26
     3.193414          4.38
     3.193207          0.18
     3.041467         11.60
     3.039464          0.02
     3.031013          0.04
     3.027325          0.00
     3.024913         18.24
     3.019775          0.00
     3.018559         19.64
     3.012308          0.00
     3.011514          0.00
     2.986131          0.46
     2.986019          0.02
     2.980752          8.20
     2.977633          7.24
     2.973197          0.01
     2.970212          0.23
     2.901183        212.06
     2.899881        205.30
     2.897921        236.26
     2.779979          9.97
     2.777531        385.84
     2.777448          8.67
     2.776839        388.44
     2.773050          0.52
     2.767497          0.00
     2.766322        375.72
     2.760287          0.28
     2.760218        399.59
     2.759119        363.00
     2.757279          0.00
     2.753737        343.70
     2.747735          0.02
     2.743311        169.46
     2.740355          0.00
     2.737686          0.01
     2.728937        169.79
     2.722000        163.73
     2.675637          0.01
     2.673260          0.01
     2.669853          0.09
     2.667851          0.00
     2.666453          0.00
     2.666093          0.06
     2.590202          0.02
     2.588739          0.02
     2.587848          0.53
     2.584982          0.01
     2.583963          0.75
     2.582560          0.04
     2.551081          4.89
     2.547708          7.10
     2.546298          0.00
     2.545418          0.01
     2.536861          2.34
     2.535454          0.01
     2.530775          0.01
     2.528609          0.00
     2.415797          0.00
     2.415361          0.00
     2.402219          0.08
     2.398814          0.00
     2.396020          0.00
     2.395859          0.15
     2.395007          0.01
     2.392905          0.01
     2.385516          0.02
     2.380419          0.43
     2.380244          0.01
     2.376169          0.47
     2.348642        323.11
     2.344039          0.00
     2.336678          0.00
     2.332167          0.00
     2.283942          0.00
     2.280937          0.03
     2.278045          0.01
     2.276411          0.05
     2.276270          0.00
     2.273260        581.70
     2.271419          5.08
     2.270662          4.36
     2.270494        589.93
     2.268025          0.14
     2.265449          0.01
     2.263956          0.01
     2.262616          0.84
     2.260096          0.22
     2.259231        570.00
     2.258291          0.00
     2.258153          0.04
     2.256686          0.72
     2.248548          0.00
     2.248469          0.00
     2.243142          0.00
     2.227627          0.01
     2.226339          0.00
     2.222725          0.03
     2.219555          0.01
     2.218002         21.03
     2.217176          0.00
     2.216487         19.20
     2.215296          0.00
     2.212281         18.87
     2.210328         19.17
     2.208006         16.46
     2.207559         25.37
     2.161144          0.02
     2.160209          0.00
     2.154095          0.02
     2.149757          0.02
     2.147374          0.14
     2.146753          0.03
     2.145188          0.01
     2.143371          0.08
     2.143312          2.28
     2.139736          0.59
     2.139313          1.74
     2.138692          0.24
     2.134212          1.00
     2.132649          0.88
     2.132494          1.26
     2.132272          0.02
     2.130470          0.05
     2.129903          1.43
     2.107043          0.01
     2.105167          0.00
     2.105108          0.18
     2.104278          3.85
     2.103983          0.18
     2.103532          4.33
     2.059464          0.00
     2.059151          0.03
     2.052731         83.02
     2.051590          0.38
     2.048602          0.02
     2.047853          0.27
     2.045387          0.00
     2.044919          0.02
     2.044576          0.00
     2.039562         89.07
     2.036439          0.00
     2.036313          0.11
     2.034222         93.02
     2.031987          0.04
     2.031653          0.00
     2.027645          0.01
     2.023997          0.03
     2.021104          0.00
     2.016609          0.00
     2.012372          0.02
     2.011497          0.00
     1.986777          0.00
     1.985528          0.00
     1.981794          0.00
     1.977923          1.20
     1.976802          0.00
     1.975408          2.15
     1.972816          2.86
     1.966310          0.77
     1.965616          0.68
     1.964415          0.00
     1.959008          0.01
     1.956992          0.02
     1.952191          0.03
     1.952142          0.01
     1.948051          0.00
     1.944542          5.21
     1.943242          6.01
     1.937637          4.07
     1.933962          0.21
     1.933442          3.83
     1.931954          0.24
     1.931094          6.74
     1.930901          0.01
     1.928306          0.03
     1.928208          5.80
     1.928163          0.01
     1.927567          0.00
     1.911699         97.14
     1.904675         91.54
     1.902089         92.32
     1.900721          1.38
     1.899418          0.06
     1.899180          1.55
     1.898976          0.78
     1.898937          0.81
     1.896538          0.01
     1.896399          0.07
     1.895059          0.00
     1.889437          0.42
     1.886867          0.69
     1.884794          0.69
     1.883977          0.07
     1.882880          0.01
     1.882280          0.50
     1.877073          1.28
     1.876776          0.02
     1.874118          0.06
     1.873333          1.16
     1.841847          3.48
     1.840209          3.16
     1.838528          0.13
     1.835564          0.00
     1.831330          0.06
     1.830008          0.00
     1.828874         55.76
     1.826688          0.13
     1.825747          0.01
     1.824388          2.21
     1.823177        157.73
     1.822590        150.74
     1.822243          1.49
     1.819291         53.33
     1.818608          0.02
     1.816998        164.15
     1.816395          0.01
     1.815766          0.03
     1.814667         48.12
     1.807385          0.00
     1.797294          0.01
     1.796728          0.00
     1.792645          0.17
     1.791807          0.01
     1.789233          0.27
     1.788958          0.03
     1.766927          0.74
     1.766486          0.91
     1.763937          0.01
     1.763610          0.02
     1.760138          0.04
     1.760134         13.80
     1.759139         13.53
     1.758539          0.07
     1.758452          0.01
     1.757883          0.04
     1.756995          0.29
     1.755370         16.67
     1.754995          0.33
     1.754730          0.01
     1.753646          0.00
     1.752999          0.57
     1.752138          0.48
     1.752075         17.75
     1.750758          0.01
     1.750705          0.00
     1.749464          0.04
     1.748555          0.00
     1.748456         17.88
     1.747621          0.02
     1.747298          0.07
     1.746172         18.95
     1.744702          0.00
     1.744696          4.28
     1.742820          3.04
     1.742051          0.21
     1.741703          0.00
     1.740635          0.01
     1.738979          0.00
     1.737629          0.01
     1.735551          1.90
     1.733115          0.05
     1.732571          0.10
     1.731382          0.00
     1.731367          1.46
     1.724364          0.05
     1.723835          0.00
     1.716229          1.34
     1.713569          0.00
     1.712957        246.55
     1.712451          1.19
     1.711130          0.94
     1.711074          0.75
     1.710703        244.77
     1.710325          0.06
     1.708534        241.18
     1.707422          0.01
     1.707335          0.00
     1.705477          0.04
     1.702461          0.00
     1.701701          0.06
     1.698761          0.00
     1.697273          0.32
     1.695973          0.00
     1.692658          0.26
     1.691453          0.02
     1.691325          6.16
     1.689643          5.11
     1.685025          0.00
     1.684467          2.45
     1.683626          0.19
     1.681677          0.00
     1.681620          0.00
     1.681410          0.00
     1.680243          0.01
     1.679605          3.62
     1.678663          0.15
     1.677984          3.82
     1.669577         35.94
     1.667138         35.11
     1.658837         31.37
     1.651743          0.00
     1.650080          0.00
     1.648851          0.29
     1.645742          0.01
     1.645408          5.28
     1.645390          0.00
     1.644672          0.01
     1.644358          4.48
     1.644022          0.01
     1.643721          0.00
     1.643475          0.21
     1.642917          0.00
     1.641855          0.00
     1.639419          0.01
     1.637110          0.00
     1.636752          0.01
     1.636527          0.29
     1.634564         28.08
     1.634512          0.18
     1.633396         26.26
     1.633316          0.00
     1.632745         26.27
     1.632045         25.78
     1.631912          0.00
     1.631503         21.43
     1.631040         23.27
     1.628936          0.00
     1.624509          0.01
     1.623183          0.00
     1.619731          0.01
     1.616355          0.00
     1.615729          0.02
     1.615622          0.00
     1.613050          0.23
     1.612785         13.30
     1.612114         12.53
     1.611009          0.22
     1.609963          0.02
     1.609743          0.02
     1.606820         11.14
     1.606816          0.00
     1.606254          0.47
     1.605859          8.35
     1.605820         10.98
     1.605173          7.49
     1.604426         10.36
     1.602770         10.79
     1.602692          0.01
     1.602673          0.01
     1.602011          0.30
     1.600078          7.63
     1.599504          4.74
     1.599414          0.75
     1.598962          0.03
     1.596707          4.53
     1.596604          7.93
     1.595920          0.61
     1.572113          0.01
     1.571568          0.12
     1.570429          0.01
     1.569361          2.71
     1.568150          0.13
     1.567627          2.95
     1.565761          5.53
     1.557521          0.01
     1.555183          0.16
     1.552569          0.08
     1.547812          0.00
     1.546854          0.01
     1.542211          0.00
     1.532534          0.00
     1.532438          0.01
     1.532165          0.07
     1.529322          0.00
     1.528670          0.02
     1.528647          0.00
     1.528380          0.00
     1.527608          0.00
     1.526989          0.02
     1.525446          0.02
     1.525440          1.03
     1.525412          1.85
     1.524468          0.89
     1.524190          0.00
     1.523969          0.00
     1.523789          0.04
     1.523323          0.00
     1.522266          0.00
     1.522153          1.89
     1.521967          0.01
     1.520734         60.92
     1.520453          0.16
     1.519732         11.02
     1.517011          0.04
     1.516166          0.00
     1.515507          0.55
     1.513662          0.47
     1.512456         61.82
     1.511605          0.02
     1.509922          0.00
     1.509887         11.07
     1.509725          0.63
     1.509279         62.74
     1.507594          0.75
     1.507227          0.00
     1.506773          0.04
     1.506154          0.29
     1.505757         10.53
     1.504638         47.87
     1.504127         47.69
     1.497068         43.82
     1.495460          0.01
     1.494787          0.00
     1.494644          0.41
     1.494560          0.10
     1.494053          0.00
     1.493910         47.73
     1.493309         41.59
     1.493066          0.17
     1.493009          0.17
     1.492399          0.66
     1.491887          0.00
     1.491048          0.04
     1.490990          0.00
     1.490714          0.13
     1.490672         50.34
     1.490376          0.58
     1.489574          3.00
     1.489147          2.48
     1.488816          0.92
     1.487822          2.50
     1.487805          0.00
     1.487663          0.64
     1.486907          0.00
     1.486598          0.45
     1.486573          0.94
     1.486208          0.11
     1.485106          0.54
     1.484813          2.70
     1.484448          2.32
     1.484209          0.13
     1.484041          2.40
     1.483601          0.04
     1.483390          0.05
     1.483288          0.02
     1.482372          0.07
     1.481451          0.00
     1.480687          0.00
     1.480523          0.00
##############################################################################
###                            Comments                                    ###
##############################################################################
###   Diffraction pattern calculated by Match!. 
###   I/Ic calculated by Match!. 
###   Space group has been derived from given symmetry operations. 
##############################################################################


