##############################################################################
###               Crystal structure data exported by Match!                ###
##############################################################################
###                           Data published by:                           ###
###                                                                        ###
###               COD (Crystallography Open Database)
##############################################################################
data_1525726
_citation_journal_full    'Journal of Alloys Compd.'
_citation_journal_volume  '316'
_citation_page_first  '21'
_citation_page_last   '38'
_citation_year  '2001'
_citation_title  'Nitrogen ordering and ferromagnetic properties of epsilon-(Fe3 N1+x)(0.10 < x < 0.39) and epsilon-(Fe3 (N0.80 C0.20)1.38)'
loop_
_publ_author_name
  'Leineweber A.'
  'Jacobs H.'
  'Kockelmann W.'
  'Huening F.'
  'Lueken H.'
_chemical_formula_sum  'C0.279 Fe3 N1.116'
_chemical_name_common  'Fe3 (N0.8 C0.2)1.395'
_symmetry_space_group_name_H-M 'P -3 1 m'
_space_group_IT_number 162
_space_group_crystal_system 'trigonal (hexagonal axes)'
loop_
_symmetry_equiv_pos_as_xyz
   'x, y, z'
   '-y, x-y, z'
   '-x+y, -x, z'
   '-y, -x, -z'
   '-x+y, y, -z'
   'x, x-y, -z'
   '-x, -y, -z'
   'y, -x+y, -z'
   'x-y, x, -z'
   'y, x, z'
   'x-y, -y, z'
   '-x, -x+y, z'
_cell_length_a        4.76440
_cell_length_b        4.76440
_cell_length_c        4.39060
_cell_angle_alpha    90.0000
_cell_angle_beta     90.0000
_cell_angle_gamma   120.0000
_cell_formula_units_Z 2
loop_
_atom_site_label
_atom_site_fract_x
_atom_site_fract_y
_atom_site_fract_z
_atom_site_occupancy
_atom_site_B_iso_or_equiv
c      0.000   0.000   0.000    0.19000    1.000
c      0.333   0.667   0.500    0.16800    1.000
fe      0.333   0.000   0.250    1.00000    1.000
n      0.000   0.000   0.000    0.76000    1.000
n      0.333   0.667   0.500    0.67200    1.000
n      0.333   0.667   0.000    0.06400    1.000
c      0.333   0.667   0.000    0.01600    1.000
_cell_measurement_wavelength    1.541874
_cell_measurement_radiation   'x-rays'
_exptl_crystal_density_diffrn    7.177000
loop_
_pd_peak_d_spacing
_pd_peak_intensity
     4.390600          1.06
     4.126091          0.01
     3.006751         17.86
     2.382200        163.98
     2.195300        213.03
     2.093858       1000.00
     2.063046          0.00
     1.938059          0.00
     1.867193          2.67
     1.614348        172.58
     1.559516          0.00
     1.503375          0.00
     1.469566          1.70
     1.463533          0.02
     1.379334          0.62
     1.375364        150.89
     1.312476          0.05
     1.271370          0.00
     1.246999        127.73
     1.193676          0.32
     1.191100         12.59
     1.165518        109.77
     1.149550         91.45
     1.144372          0.00
     1.107376          0.46
     1.097650         19.77
     1.067194          0.40
     1.060757          0.00
     1.046929         29.01
     1.031523          0.00
     1.014773          0.00
##############################################################################
###                            Comments                                    ###
##############################################################################
###   Diffraction pattern calculated by Match!. 
###   I/Ic calculated by Match!. 
###   Space group has been derived from given symmetry operations. 
##############################################################################


