##############################################################################
###               Crystal structure data exported by Match!                ###
##############################################################################
###                           Data published by:                           ###
###                                                                        ###
###               COD (Crystallography Open Database)
##############################################################################
data_9007154
_citation_journal_full    'Physics and Chemistry of Minerals'
_citation_journal_volume  '29'
_citation_page_first  '633'
_citation_page_last   '641'
_citation_year  '2002'
_citation_title  'Bonding character of SiO2 stishovite under high pressures up to 30 GPaSample: P = 29.1 GPa'
loop_
_publ_author_name
  'Yamanaka T.'
  'Fukuda T.'
  'Tsuchiya J.'
_chemical_formula_sum  'O2 Si'
_chemical_name_mineral  'Stishovite'
_symmetry_space_group_name_H-M 'P 42/m n m'
_space_group_IT_number 136
_space_group_crystal_system 'tetragonal'
loop_
_symmetry_equiv_pos_as_xyz
   'x, y, z'
   '-y+0.5, x+0.5, z+0.5'
   '-x, -y, z'
   'y+0.5, -x+0.5, z+0.5'
   'x+0.5, -y+0.5, -z+0.5'
   '-x+0.5, y+0.5, -z+0.5'
   'y, x, -z'
   '-y, -x, -z'
   '-x, -y, -z'
   'y+0.5, -x+0.5, -z+0.5'
   'x, y, -z'
   '-y+0.5, x+0.5, -z+0.5'
   '-x+0.5, y+0.5, z+0.5'
   'x+0.5, -y+0.5, z+0.5'
   '-y, -x, z'
   'y, x, z'
_cell_length_a        4.04400
_cell_length_b        4.04400
_cell_length_c        2.61900
_cell_angle_alpha    90.0000
_cell_angle_beta     90.0000
_cell_angle_gamma    90.0000
loop_
_atom_site_label
_atom_site_fract_x
_atom_site_fract_y
_atom_site_fract_z
_atom_site_occupancy
_atom_site_B_iso_or_equiv
si      0.000   0.000   0.000    1.00000    0.272
o      0.304   0.304   0.000    1.00000    0.481
_cell_measurement_wavelength    1.541874
_cell_measurement_radiation   'x-rays'
_cell_measurement_pressure       29100000.000000
_exptl_crystal_density_diffrn    4.659000
loop_
_pd_peak_d_spacing
_pd_peak_intensity
     2.859540       1000.00
     2.198265        276.80
     2.022000          6.93
     1.931362        403.03
     1.808532        134.21
     1.488189        579.21
     1.429770        195.13
     1.309500        102.42
     1.278825         66.41
     1.254942         10.67
     1.198558        252.63
     1.190597        104.95
     1.149149         23.06
     1.121604          4.61
     1.099133         12.37
     1.060654         24.09
     1.031034         33.19
     1.011000         39.03
##############################################################################
###                            Comments                                    ###
##############################################################################
###   Diffraction pattern calculated by Match!. 
###   I/Ic calculated by Match!. 
###   Space group has been derived from given symmetry operations. 
##############################################################################


