##############################################################################
###               Crystal structure data exported by Match!                ###
##############################################################################
###                           Data published by:                           ###
###                                                                        ###
###               COD (Crystallography Open Database)
##############################################################################
data_9015924
_citation_journal_full    'Journal of Solid State Chemistry'
_citation_journal_volume  '122'
_citation_page_first  '273'
_citation_page_last   '280'
_citation_year  '1996'
_citation_title  'A crystallographic contribution to the mechanism of a mechanicallyinduced solid state reactionNote: milling time = 0 min'
loop_
_publ_author_name
  'Calos N. J.'
  'Forrester J. S.'
  'Schaffer G. B.'
_chemical_formula_sum  'Cu O'
_chemical_name_mineral  'Tenorite'
_symmetry_space_group_name_H-M 'C 1 2/c 1'
_space_group_IT_number 15
_space_group_crystal_system 'monoclinic'
loop_
_symmetry_equiv_pos_as_xyz
   'x, y, z'
   'x+0.5, y+0.5, z'
   '-x, y, -z+0.5'
   '-x+0.5, y+0.5, -z+0.5'
   '-x, -y, -z'
   '-x+0.5, -y+0.5, -z'
   'x, -y, z+0.5'
   'x+0.5, -y+0.5, z+0.5'
_cell_length_a        4.68320
_cell_length_b        3.42880
_cell_length_c        5.12970
_cell_angle_alpha    90.0000
_cell_angle_beta     99.3086
_cell_angle_gamma    90.0000
loop_
_atom_site_label
_atom_site_fract_x
_atom_site_fract_y
_atom_site_fract_z
_atom_site_occupancy
_atom_site_B_iso_or_equiv
cu      0.250   0.250   0.000    1.00000    1.227
o      0.000   0.428   0.250    1.00000    1.630
_cell_measurement_wavelength    1.541874
_cell_measurement_radiation   'x-rays'
_exptl_crystal_density_diffrn    6.500000
loop_
_pd_peak_d_spacing
_pd_peak_intensity
     2.753684         65.70
     2.531075        314.07
     2.523180        857.83
     2.326654       1000.00
     2.310764        240.27
     1.959966         17.15
     1.863189        280.76
     1.779965         10.98
     1.714400        107.16
     1.623804          5.33
     1.583742        144.81
     1.504809        192.44
     1.419436        158.47
     1.408625        144.18
     1.405199          3.27
     1.380688         96.30
     1.376842        138.32
     1.362242          2.10
     1.313559          2.26
     1.305275         75.61
     1.297290          1.61
     1.265537         53.10
     1.261590         60.95
     1.202598          1.07
     1.194421          1.36
     1.194345         20.88
     1.167856         47.13
     1.163327         43.43
     1.158181          1.16
     1.155382         35.47
     1.121836         16.31
     1.121010          0.75
     1.110035          0.94
     1.109508          0.05
     1.092692         56.11
     1.075086         28.21
     1.041280         12.59
     1.030992          0.04
     1.019722          0.49
     1.018177         26.97
     1.018036          0.64
     1.009071         36.65
##############################################################################
###                            Comments                                    ###
##############################################################################
###   Synthetic
###   Diffraction pattern calculated by Match!. 
###   I/Ic calculated by Match!. 
###   Space group has been derived from given symmetry operations. 
##############################################################################


