##############################################################################
###               Crystal structure data exported by Match!                ###
##############################################################################
###                           Data published by:                           ###
###                                                                        ###
###               COD (Crystallography Open Database)
##############################################################################
data_9011151
_citation_journal_full    'Acta Crystallographica, Section B'
_citation_journal_volume  '31'
_citation_page_first  '183'
_citation_page_last   '187'
_citation_year  '1975'
_citation_title  'The crystal structure of paratacamite, Cu2(OH)3ClSample: Ordered structure, considered to be the true structure'
loop_
_publ_author_name
  'Fleet M. E.'
_chemical_formula_sum  'Cl Cu2 H3 O3'
_chemical_name_mineral  'Paratacamite'
_symmetry_space_group_name_H-M 'R -3'
_space_group_IT_number 148
_space_group_crystal_system 'trigonal (hexagonal axes)'
loop_
_symmetry_equiv_pos_as_xyz
   'x, y, z'
   'x+0.66667, y+0.33333, z+0.33333'
   'x+0.33333, y+0.66667, z+0.66667'
   '-y, x-y, z'
   '-y+0.66667, x-y+0.33333, z+0.33333'
   '-y+0.33333, x-y+0.66667, z+0.66667'
   '-x+y, -x, z'
   '-x+y+0.66667, -x+0.33333, z+0.33333'
   '-x+y+0.33333, -x+0.66667, z+0.66667'
   '-x, -y, -z'
   '-x+0.66667, -y+0.33333, -z+0.33333'
   '-x+0.33333, -y+0.66667, -z+0.66667'
   'y, -x+y, -z'
   'y+0.66667, -x+y+0.33333, -z+0.33333'
   'y+0.33333, -x+y+0.66667, -z+0.66667'
   'x-y, x, -z'
   'x-y+0.66667, x+0.33333, -z+0.33333'
   'x-y+0.33333, x+0.66667, -z+0.66667'
_cell_length_a       13.65400
_cell_length_b       13.65400
_cell_length_c       14.04100
_cell_angle_alpha    90.0000
_cell_angle_beta     90.0000
_cell_angle_gamma   120.0000
loop_
_atom_site_label
_atom_site_fract_x
_atom_site_fract_y
_atom_site_fract_z
_atom_site_occupancy
_atom_site_B_iso_or_equiv
cu      0.000   0.000   0.500    1.00000    0.690
cu      0.500   0.500   0.500    1.00000    0.907
cu      0.413   0.330   0.332    1.00000    1.150
cu      0.412   0.578   0.333    1.00000    0.801
o      0.559   0.618   0.405    1.00000    0.580
o      0.564   0.432   0.391    1.00000    0.769
o      0.367   0.428   0.391    1.00000    2.510
o      0.064   0.126   0.392    1.00000    1.060
cl      0.000   0.000   0.195    1.00000    1.189
cl      0.500   0.503   0.193    1.00000    1.179
_cell_measurement_wavelength    1.541874
_cell_measurement_radiation   'x-rays'
_exptl_crystal_density_diffrn    3.754000
loop_
_pd_peak_d_spacing
_pd_peak_intensity
     9.044628          0.03
     6.827000          0.04
     6.036705          0.04
     5.448987       1000.00
     4.680333        155.21
     4.522314         29.69
     4.258779          0.69
     3.941570          0.25
     3.860280          0.26
     3.770173          0.60
     3.413500         53.29
     3.365107          0.00
     3.193626          2.01
     3.018352         14.45
     3.014876          0.08
     2.971361          2.84
     2.892760        218.12
     2.760582          2.67
     2.757921        757.75
     2.732209          0.11
     2.724493        184.90
     2.663519          0.59
     2.580364          0.54
     2.536612          3.72
     2.530434          0.06
     2.396416          0.10
     2.377785          0.28
     2.340167        111.21
     2.332094          0.05
     2.275667          0.09
     2.261157        573.25
     2.259694          2.37
     2.241197          0.00
     2.213723          0.02
     2.206885         36.75
     2.146487          0.28
     2.133067          0.40
     2.129390          2.00
     2.099896          1.29
     2.046575          0.27
     2.036002         87.92
     2.032803          0.27
     2.012235          0.14
     1.977606          0.29
     1.970785          2.25
     1.961338          0.16
     1.951085          0.37
     1.930140         10.62
     1.925603          0.26
     1.899516         94.33
     1.893469          0.92
     1.885086          1.39
     1.873474          0.63
     1.830001          0.83
     1.817088          0.44
     1.816329        217.08
     1.808926          0.00
     1.788562          0.17
     1.755269          0.63
     1.748585         34.41
     1.746558          0.33
     1.736105          0.04
     1.733461          1.77
     1.711175          0.39
     1.706750        247.07
     1.700603          0.26
     1.693906          0.24
     1.682553          4.40
     1.677151          1.09
     1.659830         35.74
     1.642370          1.62
     1.633670          0.04
     1.631466          0.11
     1.628723         52.24
     1.612846          0.05
     1.603985          0.42
     1.603462         23.55
     1.598362          0.36
     1.596813         14.12
     1.566221          0.71
     1.560111          1.62
     1.547460          0.04
     1.529727          0.01
     1.522161          0.61
     1.520904          0.04
     1.517353          0.42
     1.509176         63.99
     1.507438         12.03
     1.505274          0.48
     1.492713         98.35
     1.489774          0.19
     1.485680          0.92
     1.485265          1.65
     1.479976          0.25
     1.473600          0.84
     1.471982          0.26
     1.469966         29.71
     1.458263          0.15
##############################################################################
###                            Comments                                    ###
##############################################################################
###   Diffraction pattern calculated by Match!. 
###   I/Ic calculated by Match!. 
##############################################################################


