##############################################################################
###               Crystal structure data exported by Match!                ###
##############################################################################
###                           Data published by:                           ###
###                                                                        ###
###               COD (Crystallography Open Database)
##############################################################################
data_2300113
_citation_journal_full    'Journal of Applied Crystallography'
_citation_journal_volume  '39(2)'
_citation_page_first  '169'
_citation_page_last   '175'
_citation_year  '2006'
_citation_title  'High-pressure X-ray investigation of zincite ZnO single crystals usingdiamond anvils with an improved shape'
loop_
_publ_author_name
  'Sowa Heidrun'
  'Ahsbahs Hans'
_chemical_formula_sum  'O Zn'
_chemical_name_common  'Zinc oxide'
_symmetry_space_group_name_H-M 'P 63 m c'
_space_group_IT_number 186
_space_group_crystal_system 'hexagonal'
loop_
_symmetry_equiv_pos_as_xyz
   'x, y, z'
   'x-y, x, z+0.5'
   '-y, x-y, z'
   '-x, -y, z+0.5'
   '-x+y, -x, z'
   'y, -x+y, z+0.5'
   '-x+y, y, z'
   'x, x-y, z'
   '-y, -x, z'
   'y, x, z+0.5'
   'x-y, -y, z+0.5'
   '-x, -x+y, z+0.5'
_cell_length_a        3.23420
_cell_length_b        3.23420
_cell_length_c        5.17720
_cell_angle_alpha    90.0000
_cell_angle_beta     90.0000
_cell_angle_gamma   120.0000
_cell_formula_units_Z 2
loop_
_atom_site_label
_atom_site_fract_x
_atom_site_fract_y
_atom_site_fract_z
_atom_site_occupancy
_atom_site_B_iso_or_equiv
zn      0.333   0.667   0.000    1.00000    0.552
o      0.333   0.667   0.382    1.00000    0.647
_cell_measurement_wavelength    1.541874
_cell_measurement_radiation   'x-rays'
_cell_measurement_temperature    293.000000
_exptl_crystal_density_diffrn    5.762000
_exptl_crystal_colour            'colourless'
loop_
_pd_peak_d_spacing
_pd_peak_intensity
     2.800899        519.16
     2.588600        394.78
     2.463489       1000.00
     1.901045        221.35
     1.617100        327.74
     1.543555          0.00
     1.469243        301.54
     1.400450         46.08
     1.371483        259.72
     1.351863        133.46
     1.294300         22.36
     1.231744         42.44
     1.179999          0.00
     1.174920         23.56
     1.087435         94.57
     1.058640         32.13
     1.037179        107.22
     1.010489         60.77
##############################################################################
###                            Comments                                    ###
##############################################################################
###   Diffraction pattern calculated by Match!. 
###   I/Ic calculated by Match!. 
###   Space group has been derived from given symmetry operations. 
##############################################################################


