##############################################################################
###               Crystal structure data exported by Match!                ###
##############################################################################
###                           Data published by:                           ###
###                                                                        ###
###               COD (Crystallography Open Database)
##############################################################################
data_9001678
_citation_journal_full    'American Mineralogist'
_citation_journal_volume  '80'
_citation_page_first  '400'
_citation_page_last   '403'
_citation_year  '1995'
_citation_title  'The crystal structure of pararealgar'
loop_
_publ_author_name
  'Bonazzi P.'
  'Menchetti S.'
  'Pratesi G.'
_chemical_formula_sum  'As S'
_chemical_name_mineral  'Pararealgar'
_symmetry_space_group_name_H-M 'P 1 21/c 1'
_space_group_IT_number 14
_space_group_crystal_system 'monoclinic'
loop_
_symmetry_equiv_pos_as_xyz
   'x, y, z'
   '-x, y+0.5, -z+0.5'
   '-x, -y, -z'
   'x, -y+0.5, z+0.5'
_cell_length_a        9.90900
_cell_length_b        9.65500
_cell_length_c        8.50200
_cell_angle_alpha    90.0000
_cell_angle_beta     97.2900
_cell_angle_gamma    90.0000
loop_
_atom_site_label
_atom_site_fract_x
_atom_site_fract_y
_atom_site_fract_z
_atom_site_occupancy
_atom_site_B_iso_or_equiv
as      0.319   0.635   0.043    1.00000    3.000
as      0.082   0.543   0.325    1.00000    2.763
as      0.370   0.361   0.343    1.00000    3.947
as      0.145   0.344   0.164    1.00000    3.237
s      0.165   0.719   0.192    1.00000    3.158
s      0.254   0.478   0.510    1.00000    3.632
s      0.470   0.528   0.219    1.00000    4.105
s      0.196   0.448   -0.049    1.00000    3.316
_cell_measurement_wavelength    1.541874
_cell_measurement_radiation   'x-rays'
_exptl_crystal_density_diffrn    3.523000
loop_
_pd_peak_d_spacing
_pd_peak_intensity
     9.828902         89.26
     6.887776         33.43
     6.351525         32.71
     5.583401        780.11
     5.116377       1000.00
     4.914451        228.30
     4.827500        186.90
     4.379728          3.58
     4.333071          8.41
     4.216637         37.59
     4.189626         59.56
     4.080121          3.94
     4.066564         15.09
     3.944845         33.22
     3.864194         62.36
     3.769339        210.06
     3.747708        562.55
     3.718622        149.70
     3.708350         54.78
     3.461786         48.03
     3.443888         41.67
     3.421913         70.22
     3.292400        750.03
     3.276301          6.97
     3.225332         29.06
     3.175762          8.20
     3.110147         44.60
     3.102538         34.15
     3.093463        340.00
     3.058547         20.49
     3.032201        169.41
     3.016562        283.42
     3.006821        184.53
     2.940831        131.37
     2.912384        338.19
     2.879301        142.08
     2.839575         43.07
     2.804590        344.57
     2.791701        643.96
     2.762543          4.15
     2.710930          0.52
     2.699020         75.75
     2.692382          0.90
     2.687628          1.70
     2.663628          9.07
     2.655962         90.23
     2.618116         66.73
     2.558309          0.01
     2.558189          0.85
     2.525300          1.75
     2.523632        110.18
     2.514694         16.50
     2.505360          3.97
     2.497594          6.61
     2.457226         96.44
     2.441395        146.23
     2.430622         49.91
     2.429245         11.24
     2.420929         40.71
     2.413750         26.85
     2.397709         52.99
     2.381315         51.66
     2.369161         11.36
     2.366898         77.70
     2.344373          3.20
     2.344101         36.69
     2.320570        131.65
     2.300265         16.33
     2.295925         17.52
     2.279266        217.15
     2.276322         46.75
     2.266979          0.00
     2.252751         43.48
     2.250927          3.98
     2.241046          0.08
     2.221379         16.04
     2.220144         67.65
     2.200908         47.40
     2.192141         26.59
     2.189864         39.77
     2.180401          0.03
     2.178637          1.08
     2.166995          3.30
     2.166536         24.26
     2.127270          8.56
     2.117257          0.17
     2.117175          0.18
     2.111663         60.94
     2.108319          0.72
     2.096200         27.41
     2.094813          7.73
     2.088639         19.67
     2.075647          0.48
     2.070666          9.26
     2.068115          3.84
     2.063562        174.90
     2.062572          9.53
     2.059782         16.47
     2.040060          0.53
     2.033282         77.26
     2.030150        295.19
     2.022965         10.47
     2.015671         31.49
     2.014740         61.16
     2.009794         14.17
     1.989641          0.02
     1.972423         58.90
     1.972257          9.58
     1.968787         61.81
     1.967616         59.77
     1.965780         11.69
     1.953044         68.04
     1.946322         12.01
     1.945067          7.17
     1.943307         56.04
     1.938969          0.39
     1.938361          0.93
     1.932097         10.02
     1.930735          2.08
     1.926260         13.91
     1.925660          0.28
     1.894780         10.62
     1.885143          7.66
     1.884670         21.39
     1.882287          3.58
     1.880217          0.03
     1.875128          9.12
     1.873854         24.36
     1.863244         10.15
     1.861861          7.86
     1.861134         99.95
     1.859311          1.62
     1.858441          1.48
     1.856403          7.97
     1.855421         17.65
     1.854175         15.42
     1.850205          4.16
     1.844544          0.08
     1.840734         36.78
     1.839096          0.66
     1.831289          0.03
     1.830830          9.57
     1.829171          1.32
     1.827719          0.51
     1.824400          2.61
     1.820901         10.89
     1.820623         10.76
     1.817665          2.77
     1.797241         35.80
     1.774636         29.48
     1.774094          2.95
     1.768810         14.06
     1.764407          3.90
     1.763588         34.94
     1.756004          3.42
     1.755660          9.42
     1.747901         25.72
     1.744332        129.18
     1.741372          2.22
     1.737992         28.76
     1.730893         46.50
     1.721944         45.31
     1.718960          1.25
     1.717332          2.39
     1.716470          4.00
     1.715912         51.19
     1.712713         40.89
     1.710956        161.62
     1.707713          1.93
     1.705459         64.75
     1.704698         22.99
     1.700938          5.94
     1.689999         16.97
     1.685567         20.96
     1.684708          0.53
     1.681714          0.26
     1.680545        173.88
     1.678664          3.02
     1.677592         12.07
     1.675141          1.68
     1.672980         35.31
     1.671409          2.45
     1.663559         93.55
     1.661493          2.17
     1.658475         17.23
     1.657961         15.30
     1.653853          1.46
     1.652448          0.67
     1.646200          5.68
     1.639972         11.95
     1.638150          6.15
     1.637292         17.16
     1.626632          3.84
     1.626328          4.70
     1.624223         21.06
     1.620185         34.61
     1.617305          1.08
     1.615068          4.92
     1.612666         11.15
     1.612500          7.12
     1.612283          6.67
     1.609167         18.32
     1.606612         14.85
     1.605600          1.17
     1.604269          6.91
     1.602370          8.71
     1.596896         17.20
     1.592269         67.36
     1.591689         12.40
     1.591654         16.08
     1.589309          0.23
     1.588025          0.73
     1.587881          8.84
     1.585541         15.67
     1.582685         30.91
     1.580649         56.44
     1.575492          6.79
     1.570931          0.62
     1.566449         26.81
     1.562728         22.78
     1.559376          5.51
     1.555074         32.42
     1.554812          2.83
     1.553671          7.94
     1.551269         26.45
     1.550805         35.96
     1.547152          7.47
     1.546731          2.30
     1.545056          1.13
     1.544490          2.49
     1.542873          5.14
     1.538430          0.08
     1.533114          1.32
     1.530219         12.10
     1.529274          1.59
     1.526458          4.64
     1.524244          0.00
     1.519264          0.03
     1.518284          1.15
     1.517475         15.39
     1.516100          2.60
     1.515274          0.45
     1.515119          6.58
     1.514548          0.51
     1.514527         61.68
     1.510736          2.28
     1.508281          7.29
     1.504716          9.75
     1.504178          0.44
     1.503825          2.89
     1.503411          0.23
     1.502261          8.53
     1.496279          1.66
     1.494409         12.29
     1.494064          3.18
     1.493928         10.82
     1.490207          0.02
     1.488367          0.24
     1.485717          0.14
     1.483303          1.59
     1.482815          3.80
     1.480800         10.01
     1.476262          3.56
     1.476178          2.82
     1.474760          2.72
     1.474240          0.00
     1.473879          0.00
     1.470416         29.65
     1.466660          1.41
     1.465798          0.14
     1.465599          7.19
     1.465485         19.23
     1.464191         32.35
     1.463907          1.39
     1.459909          5.93
     1.456192          2.06
     1.452905          7.79
     1.452235          1.75
     1.448890          0.08
     1.444357          0.01
     1.439651          0.24
     1.437067          0.30
     1.432982         37.59
     1.430482          5.79
     1.426736         26.98
     1.423991          0.10
     1.420908          7.60
     1.419788         12.20
     1.416813         13.42
     1.415896          9.83
     1.413444          5.83
     1.412334          1.34
     1.411928          0.01
     1.410560          7.69
     1.405546         25.80
     1.404129          1.24
     1.402295          0.63
     1.401800          3.67
     1.400186          4.16
     1.399506          2.17
     1.399114          8.28
     1.398855          0.12
     1.396542          3.09
     1.395850          2.43
     1.394957          0.76
     1.394088          0.00
     1.392860          0.04
     1.392446          7.72
     1.390885          4.91
     1.390471          2.51
     1.390394          7.28
     1.389512          7.88
     1.389158          0.81
     1.388000          0.04
     1.386635          1.18
     1.385968          8.30
     1.384652          5.60
     1.382560          7.50
     1.381961          0.01
     1.381271          1.60
     1.379189          2.26
     1.378149          4.62
     1.377555          2.85
     1.376468          1.02
     1.371905          7.25
     1.370673          0.28
     1.369075          0.08
     1.368522          0.23
     1.367350          1.06
     1.367290          0.01
     1.366191          0.01
     1.365902          2.39
     1.365738          0.76
     1.361200          0.91
     1.360863          0.10
     1.360040          0.04
     1.359473          0.00
     1.357380          5.70
     1.355521          0.48
     1.355465         15.67
     1.355214          1.55
     1.354590          2.55
     1.353783          3.51
     1.352100          5.63
     1.349853          2.89
     1.349510          0.29
     1.348918          3.66
     1.348256         10.13
     1.346191          3.20
     1.345407          5.44
     1.345235          0.11
     1.344595          2.78
     1.344217          2.96
     1.343984          0.00
     1.343814          0.52
     1.343570          2.40
     1.342356          0.79
     1.341452         23.18
     1.340701          0.93
     1.337435          3.43
     1.333722          0.90
     1.332153          1.46
     1.331814          1.28
     1.330349          0.68
     1.327981          0.12
     1.327975          0.03
     1.324077          0.23
     1.321627          0.13
     1.318777          3.34
     1.316856          0.04
     1.316802          5.93
     1.315543          5.85
     1.315205         24.29
     1.314948         11.47
     1.312853         15.47
     1.310934          7.26
     1.309058          0.28
     1.308189          3.06
     1.306760          0.00
     1.306197          0.00
     1.305050          1.27
     1.305044          1.03
     1.304953          1.71
     1.304218          0.35
     1.302885          0.49
     1.297328          8.47
     1.296719          0.09
     1.296344          0.53
     1.296213          1.94
     1.294903          4.29
     1.294135          0.33
     1.294007          5.98
     1.292801          3.19
     1.292761         12.00
     1.288065          0.39
     1.287896          9.94
     1.286974          0.21
     1.284254          3.03
     1.283109          4.73
     1.282909          0.00
     1.281365          0.37
     1.281143          0.02
     1.280590          0.42
     1.279274          0.10
     1.279154          0.33
     1.279094          0.00
     1.277890          0.93
     1.276373          6.01
     1.275417          1.31
     1.274410          1.37
     1.273042          1.10
     1.272947          2.12
     1.271228          8.27
     1.270305          0.04
     1.269305          0.31
     1.268692          6.77
     1.266881          0.05
     1.266249          2.27
     1.262650          2.38
     1.262347         13.08
     1.261816          4.07
     1.259580          1.67
     1.259391          0.04
     1.258430          2.24
     1.257347          1.87
     1.256446          2.27
     1.256142          0.88
     1.254380          0.04
     1.253414          0.18
     1.252680         11.74
     1.250736          1.53
     1.249236          0.09
     1.249192          0.02
     1.248797          0.35
     1.248507          5.26
     1.248428          3.76
     1.248003          0.01
     1.247044          0.65
     1.246384          1.88
     1.245178          0.72
     1.244795          0.50
     1.243746          0.54
     1.241088          1.88
     1.239541          0.62
     1.238263          0.25
     1.237157          0.33
     1.236117          0.02
     1.234025          0.05
     1.233553          0.30
     1.230607          1.86
     1.228829          3.09
     1.228613          0.16
     1.228340         10.12
     1.226109          0.41
     1.225352          0.07
     1.224495          0.46
     1.223908          0.01
     1.221939          0.92
     1.221872          0.12
     1.221154          1.39
     1.220698          0.45
     1.220351          0.17
     1.220123         16.76
     1.218865          1.91
     1.218785          1.11
     1.218734          1.39
     1.217760          0.49
     1.217236         10.54
     1.216963          8.47
     1.216959          1.04
     1.215311          2.79
     1.214623          0.90
     1.213708          0.64
     1.212269          0.12
     1.211896          0.38
     1.211057          0.12
     1.210465          2.59
     1.209267          7.20
     1.206875          0.92
     1.205062          9.31
     1.204416          0.31
     1.203246          0.19
     1.202758          2.28
     1.202356          0.84
     1.201921          0.53
     1.201183          0.34
     1.200888          0.12
     1.199632          0.25
     1.199561          3.75
     1.198854          0.47
     1.197879          5.27
     1.197483          1.39
     1.197311          0.00
     1.196731          0.85
     1.195710          0.15
     1.195483          4.76
     1.194703          0.29
     1.192793          0.42
     1.190657          0.54
     1.190650          2.35
##############################################################################
###                            Comments                                    ###
##############################################################################
###   Diffraction pattern calculated by Match!. 
###   I/Ic calculated by Match!. 
###   Space group has been derived from given symmetry operations. 
##############################################################################


