##############################################################################
###               Crystal structure data exported by Match!                ###
##############################################################################
###                           Data published by:                           ###
###                                                                        ###
###               COD (Crystallography Open Database)
##############################################################################
data_4124042
_citation_journal_full    'Journal of the American Chemical Society'
_citation_journal_volume  '126'
_citation_page_first  '9769'
_citation_page_last   '9775'
_citation_year  '2004'
_citation_title  'Chemical evaluation of hypothetical uninodal zeolites'
loop_
_publ_author_name
  'Foster M.D.'
  'Friedrichs O.D.'
  'Bell R.G.'
  'Klinowski J.'
  'Paz F.A.A.'
_chemical_formula_sum  'O2 Si'
_chemical_name_common  'Silica'
_symmetry_space_group_name_H-M 'P -3 1 c'
_space_group_IT_number 163
_space_group_crystal_system 'trigonal (hexagonal axes)'
loop_
_symmetry_equiv_pos_as_xyz
   'x, y, z'
   '-y, x-y, z'
   '-x+y, -x, z'
   '-y, -x, -z+0.5'
   '-x+y, y, -z+0.5'
   'x, x-y, -z+0.5'
   '-x, -y, -z'
   'y, -x+y, -z'
   'x-y, x, -z'
   'y, x, z+0.5'
   'x-y, -y, z+0.5'
   '-x, -x+y, z+0.5'
_cell_length_a       10.86794
_cell_length_b       10.86794
_cell_length_c        4.72390
_cell_angle_alpha    90.0000
_cell_angle_beta     90.0000
_cell_angle_gamma   120.0000
_cell_formula_units_Z 12
loop_
_atom_site_label
_atom_site_fract_x
_atom_site_fract_y
_atom_site_fract_z
_atom_site_occupancy
_atom_site_B_iso_or_equiv
o      0.802   0.603   0.250    1.00000    1.000
o      0.500   0.000   0.500    1.00000    1.000
si      0.646   0.154   0.471    1.00000    1.000
o      0.612   0.388   0.750    1.00000    1.000
o      0.624   0.376   0.250    1.00000    1.000
_cell_measurement_wavelength    1.541874
_cell_measurement_radiation   'x-rays'
_exptl_crystal_density_diffrn    2.477000
loop_
_pd_peak_d_spacing
_pd_peak_intensity
     9.411912       1000.00
     5.433970         90.73
     4.705956          6.35
     4.221960         31.55
     3.557368          0.65
     3.333939          8.70
     3.137304         17.21
     2.841719         76.16
     2.716985          0.53
     2.613445          4.96
     2.610395          9.61
     2.361950          2.08
     2.352978          1.08
     2.290913          1.72
     2.284763         44.33
     2.166168          7.43
     2.159241          2.11
     2.110980         28.52
     2.106165          0.13
     2.053848          0.06
     1.967716          1.15
     1.963815         19.21
     1.886967          9.51
     1.883525          4.59
     1.882382          2.01
     1.811323          1.99
     1.782550          9.41
     1.778684          4.37
     1.751416          2.64
     1.748663          0.58
     1.690429          8.69
     1.666970          1.88
     1.664596          0.64
     1.593668          1.99
     1.591593          2.12
     1.568652          9.07
     1.553048          0.67
     1.549852          1.96
     1.547309          1.72
     1.507112          0.64
     1.493258          0.52
     1.488718          0.04
     1.472073         13.05
     1.470438         11.38
     1.439881          7.47
     1.437332          1.32
     1.435810          6.93
     1.435303          0.10
     1.420859          0.37
     1.407320          1.48
     1.374644          0.73
     1.373312          0.38
     1.358492          0.62
     1.348320          5.56
     1.344559          3.58
     1.308637          0.02
     1.306723         16.39
     1.305197          2.04
     1.294308          0.06
     1.293196          4.18
     1.272263          4.53
     1.270504          2.43
     1.258060          0.68
     1.249634          0.66
     1.246638          0.10
     1.226588          8.73
     1.207777          0.65
     1.205372          0.58
     1.205072          0.34
     1.185789          1.37
     1.180975          3.14
     1.179006          0.13
     1.177606          0.52
     1.176489          3.36
     1.171786          2.07
     1.168495          1.69
     1.167676          1.08
     1.154035          0.86
     1.152198          1.89
     1.150108          0.03
     1.149848          0.72
     1.145457          0.07
     1.142382          3.42
     1.141617          0.18
     1.120825          0.51
     1.117227          1.87
     1.111313          0.02
     1.105261          0.50
     1.103646          3.00
     1.102498          0.05
     1.101581          0.79
     1.088777          1.42
     1.086794          0.31
     1.083084          1.72
     1.079620          0.08
     1.075983          0.68
     1.073433          1.35
     1.072798          1.37
     1.060757          0.55
     1.059737          0.71
     1.058923          0.11
     1.055490          0.08
     1.053083          0.99
     1.052483          0.02
     1.045768          1.14
     1.036125          0.72
     1.033847          1.39
     1.033280          4.00
     1.026924          0.39
     1.023792          0.25
     1.022508          0.77
     1.021047          0.12
##############################################################################
###                            Comments                                    ###
##############################################################################
###   Diffraction pattern calculated by Match!. 
###   I/Ic calculated by Match!. 
###   Space group has been derived from given symmetry operations. 
##############################################################################


