##############################################################################
###               Crystal structure data exported by Match!                ###
##############################################################################

data_1539958
_citation_journal_full    'Arkiv foer Kemi'
_citation_journal_id_ASTM 'ARKEAD'
_citation_journal_volume  '26'
_citation_page_first  '157'
_citation_page_last   '165'
_citation_year  '1967'
_citation_title  'The crystal structure of strontium chromate(IV), Sr2 Cr O4'
loop_
_publ_author_name
  'Wilhelmi K.A.'
_chemical_formula_sum  'Cr O4 Sr2'
_chemical_name_mineral  'Strontium chromate(IV)'
_chemical_name_common  'Sr2 (Cr O4)'
_symmetry_space_group_name_H-M 'P n a 21'
_space_group_IT_number 33
_space_group_crystal_system 'orthorhombic'
loop_
_symmetry_equiv_pos_as_xyz
   'x, y, z'
   '-x, -y, z+0.5'
   '-x+0.5, y+0.5, z+0.5'
   'x+0.5, -y+0.5, z'
_cell_length_a       14.18200
_cell_length_b        5.78800
_cell_length_c       10.10000
_cell_angle_alpha    90.0000
_cell_angle_beta     90.0000
_cell_angle_gamma    90.0000
_cell_formula_units_Z 8
loop_
_atom_site_label
_atom_site_fract_x
_atom_site_fract_y
_atom_site_fract_z
_atom_site_occupancy
_atom_site_B_iso_or_equiv
sr      0.203   0.196   0.634    1.00000    1.000
o      0.973   0.029   0.050    1.00000    1.000
o      0.124   0.332   0.261    1.00000    1.000
cr      0.273   0.700   0.788    1.00000    1.000
o      0.453   0.788   0.278    1.00000    1.000
cr      0.025   0.773   0.128    1.00000    1.000
sr      0.453   0.233   0.278    1.00000    1.000
o      0.296   0.473   0.346    1.00000    1.000
sr      0.130   0.223   0.000    1.00000    1.000
o      0.148   0.818   0.173    1.00000    1.000
o      0.012   0.558   0.020    1.00000    1.000
sr      0.379   0.195   0.911    1.00000    1.000
o      0.255   0.003   0.430    1.00000    1.000
o      0.300   0.137   0.134    1.00000    1.000
_cell_measurement_wavelength    1.541874
_cell_measurement_radiation   'x-rays'
_exptl_crystal_density_diffrn    4.666000
loop_
_pd_peak_d_spacing
_pd_peak_intensity
     7.091000          0.71
     5.803499          1.25
     5.358882          1.30
     5.050000         15.18
     5.021838         35.76
     4.733822          6.65
     4.483916          0.15
     4.113466          0.83
     4.098203          7.03
     3.675237         48.56
     3.661327          9.81
     3.545500          2.20
     3.442137         37.88
     3.352960        245.94
     3.345364         58.44
     3.041293        114.56
     3.023359        312.13
     2.964227          3.55
     2.910169       1000.00
     2.901750        241.29
     2.896377        706.16
     2.894000        495.37
     2.850768         12.67
     2.835564        120.33
     2.730015         14.20
     2.692258         14.02
     2.679441          4.98
     2.594013         76.42
     2.589854          3.53
     2.547011         19.57
     2.525000          1.30
     2.510919         29.23
     2.478226          6.64
     2.472466          3.79
     2.469692         49.79
     2.468218          2.24
     2.441367        258.23
     2.397661         32.72
     2.378694         50.30
     2.366911         53.16
     2.363667          1.07
     2.301483        141.75
     2.284146          3.23
     2.274137          6.05
     2.249450          0.30
     2.241958         15.33
     2.217525         75.14
     2.200142         96.50
     2.188684         58.23
     2.188234          1.21
     2.168804         39.00
     2.140776         47.34
     2.138616         40.00
     2.096505         88.04
     2.078626          3.82
     2.056733         52.44
     2.049101        240.65
     2.031217          0.20
     2.025695          0.12
     2.007841          5.11
     1.990573         24.09
     1.986142         13.75
     1.942712        107.12
     1.938013         11.13
     1.934500         18.97
     1.912236          3.42
     1.911724          1.49
     1.907189         51.93
     1.902616          1.21
     1.895068          2.40
     1.890174          3.65
     1.885722          9.03
     1.880079         27.20
     1.878858          3.71
     1.878372          6.73
     1.866058        171.07
     1.861656          0.81
     1.841737          0.47
     1.837619          1.38
     1.834736          4.36
     1.830815          4.72
     1.830663          0.04
     1.801313         51.34
     1.793176          9.50
     1.788321          1.83
     1.787902         36.47
     1.786294          4.00
     1.772750          7.78
     1.768676         10.65
     1.765027          5.62
     1.758995         37.63
     1.755129         49.81
     1.746745         32.92
     1.746058         25.07
     1.735723         44.09
     1.725583          4.08
     1.721069         14.94
     1.695029         38.28
     1.694672         36.10
     1.684045         17.26
     1.683333         36.88
     1.679606         22.93
     1.676480         33.70
     1.673946         99.05
     1.672682         57.09
     1.671651         75.52
     1.671309         59.38
     1.662743          1.23
     1.662406         63.39
     1.659710          2.02
     1.653657        133.74
     1.645223         21.29
     1.637817          5.49
     1.637745          5.19
     1.629167          3.19
     1.612984         74.87
     1.608275         10.45
     1.606925         48.46
     1.606621         15.17
     1.605965          2.86
     1.595265         17.71
     1.582678          1.85
     1.580062          5.47
     1.577941          3.42
     1.576738         10.68
     1.575939         59.15
     1.575731         24.87
     1.568581         39.97
     1.563223          7.57
     1.535623          9.45
     1.529431          7.09
     1.524415          1.49
     1.524156          0.07
     1.521171          2.13
     1.520647         19.90
     1.520438          0.03
     1.513970          5.04
     1.513716          2.18
     1.511680          2.55
     1.503497          1.42
     1.500709         24.93
     1.498417          7.01
     1.495027         30.50
     1.494639          1.63
     1.488644         11.98
     1.484272         11.30
     1.482114         11.74
     1.478537          5.36
     1.470736         45.30
     1.458272          6.74
     1.455883          2.19
     1.455084         40.71
     1.450875          9.21
     1.448188         33.53
     1.447486          9.53
     1.447000         23.61
     1.441614          1.48
     1.439526         33.85
     1.433185          0.14
     1.430365          7.63
     1.425384          7.78
     1.425124          9.04
     1.418200          0.09
     1.417782          3.80
     1.413885          5.66
     1.407333          6.63
     1.407129          2.26
     1.404422          6.89
     1.404341          1.55
     1.404017          7.93
     1.400013          4.22
     1.397169          2.16
     1.395197         10.48
     1.393240          1.06
     1.391023          0.17
     1.390696          7.86
     1.388690          0.01
     1.388494          1.96
     1.386922          0.77
     1.385681          0.28
     1.384380          0.48
     1.383990         11.94
     1.383924          0.11
     1.383633          0.02
     1.379042         38.34
     1.377454          0.01
     1.373499          1.04
     1.371155          3.90
     1.371113          4.18
     1.370830          0.89
     1.368950          0.53
     1.366068          1.31
     1.365380          8.98
     1.365007          4.94
     1.364819         21.36
     1.356485         11.66
     1.348651         14.97
     1.346582          1.26
     1.346129         24.94
     1.342382          0.26
     1.339720          0.42
     1.338135          2.82
     1.336430          0.73
     1.334713         15.62
     1.334452         22.60
     1.334228         10.15
     1.332413         18.60
     1.328905          0.47
     1.328088          3.44
     1.323607          5.83
     1.306972          6.04
     1.306645          4.90
     1.305375          7.07
     1.302526          1.60
     1.302170          0.77
     1.298452          4.93
     1.298292          7.87
     1.297006          4.04
     1.294927         11.89
     1.294663          1.38
     1.294608         18.84
     1.290456          2.92
     1.288959          0.27
     1.286195         26.62
     1.285950          0.07
     1.282369          3.06
     1.279999          4.36
     1.279768         14.15
     1.278589         10.59
     1.274874          0.45
     1.273506          1.11
     1.270378          3.45
     1.263835         12.53
     1.263516          0.22
     1.263501          7.82
     1.263368         13.29
     1.262500         26.23
     1.258431          0.02
     1.255460          3.37
     1.255413          2.38
     1.251937          6.13
     1.250569          2.34
     1.248919         15.19
     1.248775          2.32
     1.248593         17.15
     1.245636          0.75
     1.244783         11.06
     1.242953          0.39
     1.239113          1.14
     1.236510         18.62
     1.236233          2.12
     1.234846          9.82
     1.234109          0.00
     1.231536         27.94
     1.228858          0.82
     1.225079          8.78
     1.224998          3.93
     1.222497          6.25
     1.221088          0.50
     1.220684          4.24
     1.220442          0.85
     1.217090          1.33
     1.215248         18.73
     1.214779          1.65
     1.213595          4.91
     1.213398          4.02
     1.213307          0.95
     1.211629         17.64
     1.210298         12.65
     1.209224         29.14
     1.204571          2.40
     1.203751         20.51
     1.201499          4.26
     1.198831          2.10
     1.194410         21.51
     1.194285         14.57
     1.193536          0.69
     1.191135          8.60
     1.189347          0.15
     1.186291          4.60
     1.183455          3.21
     1.181856          1.07
     1.181833         22.41
     1.178773          1.74
     1.177691          3.63
     1.177512          1.54
     1.175216          8.70
     1.173825          0.82
     1.172304         11.02
     1.169766          0.29
     1.169590          1.67
     1.165006         17.26
     1.160700          4.08
     1.160471          8.27
     1.159581          2.29
     1.158713         11.91
     1.157941          2.02
     1.157905          8.55
     1.157180         27.00
     1.155476          2.46
     1.153763          0.01
     1.153347          6.74
     1.151771          0.93
     1.151659          4.45
     1.150741          0.05
     1.150405          3.95
     1.150071          0.91
     1.149085          3.44
     1.148028          4.83
     1.147379          0.36
     1.146916          0.87
     1.146751          6.70
     1.146308          0.98
     1.142695          0.15
     1.142476          0.03
     1.142073          0.06
     1.141683          2.95
     1.141520          9.87
     1.140434          1.01
     1.138042          1.91
     1.137069         23.25
     1.135451          8.50
     1.135237          1.19
     1.133197         37.70
     1.131163          0.41
     1.128651          1.22
     1.128318          1.43
     1.126300          0.59
     1.124781         12.41
     1.124725          5.35
     1.124380          2.27
     1.123995          0.32
     1.122433          0.87
     1.120979          0.37
     1.119050          0.06
     1.117653          3.40
     1.117477         12.67
     1.116484          5.20
     1.115121          0.55
     1.114519          1.61
     1.114316          5.85
     1.114138          2.12
     1.113603          1.86
     1.111640          1.06
     1.111489          6.03
     1.108762          0.29
     1.108427          5.85
     1.101705          1.05
     1.100431          2.33
     1.100071          0.00
     1.098820          6.50
     1.098703          1.91
     1.098606          0.47
     1.098396          0.40
     1.097506          3.51
     1.097309          3.81
     1.096371          3.88
     1.094985         36.45
     1.094696          4.16
     1.094342         10.07
     1.094117         24.90
     1.094039          5.80
     1.093957          3.20
     1.093547          7.75
     1.091449         18.33
     1.088908          4.02
     1.088644          2.23
     1.087753          0.69
     1.086590          5.85
     1.084589          0.58
     1.084402          2.81
     1.082066          0.63
     1.081880          3.34
     1.077284          4.37
     1.075200          1.13
     1.075095          5.26
     1.072953          1.46
     1.072047          0.05
     1.071957          0.00
     1.071776          7.81
     1.071443          0.27
     1.070388          0.00
     1.070090          2.67
     1.069907          9.51
     1.069308          0.26
     1.069025          2.06
     1.068891          6.27
     1.068113          0.25
     1.067308          4.19
     1.067174          1.29
     1.066475          0.94
     1.066059          0.89
     1.066034         10.91
     1.065970          3.14
     1.065807          0.00
     1.065792         14.07
     1.063572          4.53
     1.059922          5.00
     1.053587          0.32
     1.053501          4.15
     1.053121          2.80
     1.052541          0.10
     1.052084         31.70
     1.049400          0.16
     1.048678          1.19
     1.048593          0.55
     1.048424          1.35
     1.048253          5.16
     1.046606          0.61
     1.045974          1.77
     1.044888          5.85
     1.044590          3.36
     1.043737          0.08
     1.043473          1.85
     1.042835         12.00
     1.041051         10.16
     1.040886          1.24
     1.040547          0.83
     1.039617          7.24
     1.039313          1.69
     1.038078          0.65
     1.035102          7.17
     1.034153          0.26
     1.031553          9.85
     1.030990          1.04
     1.028366          0.22
     1.027145          3.22
     1.026958          0.64
     1.024551          1.48
     1.023394          1.38
     1.021586          3.19
     1.021508          1.27
     1.021430          3.34
     1.021274          0.02
     1.020804          2.68
     1.020073          0.16
     1.019074          0.31
     1.018264          0.06
     1.017406          0.38
     1.017290          3.69
     1.016105          3.64
     1.015630          2.01
     1.015608          0.05
     1.013764          0.10
     1.013000          0.00
     1.012848          1.81
     1.012509          6.84
     1.012433          7.03
     1.011424          9.78
     1.011272          0.86
     1.010000          1.78
     1.008792          1.59
     1.007943          5.85
     1.007913          0.76
     1.007793          2.29
     1.007786          0.32
##############################################################################
###                            Comments                                    ###
##############################################################################
###   Diffraction pattern calculated by Match!. 
###   I/Ic calculated by Match!. 
###   Space group has been derived from given symmetry operations. 
##############################################################################


