##############################################################################
###               Crystal structure data exported by Match!                ###
##############################################################################
###                           Data published by:                           ###
###                                                                        ###
###               COD (Crystallography Open Database)
##############################################################################
data_9011772
_citation_journal_full    'Kristallografiya'
_citation_journal_volume  '22'
_citation_page_first  '498'
_citation_page_last   '504'
_citation_year  '1977'
_citation_title  'Refinement of the crystal structure of ferrous seladonite'
loop_
_publ_author_name
  'Zhukhlistov A. P.'
  'Zvyagin B. B.'
  'Lazarenko E. K.'
  'Pavlishin V. I.'
_chemical_formula_sum  'Al0.33 Ca0.04 Fe1.39 H2 K0.78 Mg0.61 O12 Si3.67'
_chemical_name_mineral  'Celadonite'
_symmetry_space_group_name_H-M 'C 1 2/m 1'
_space_group_IT_number 12
_space_group_crystal_system 'monoclinic'
loop_
_symmetry_equiv_pos_as_xyz
   'x, y, z'
   'x+0.5, y+0.5, z'
   '-x, y, -z'
   '-x+0.5, y+0.5, -z'
   '-x, -y, -z'
   '-x+0.5, -y+0.5, -z'
   'x, -y, z'
   'x+0.5, -y+0.5, z'
_cell_length_a        5.20000
_cell_length_b        9.00000
_cell_length_c       10.25000
_cell_angle_alpha    90.0000
_cell_angle_beta    100.1000
_cell_angle_gamma    90.0000
loop_
_atom_site_label
_atom_site_fract_x
_atom_site_fract_y
_atom_site_fract_z
_atom_site_occupancy
_atom_site_B_iso_or_equiv
k      0.500   0.000   0.500    0.78000    1.000
ca      0.500   0.000   0.500    0.04000    1.000
mg      0.500   0.165   0.000    0.30500    1.000
fe      0.500   0.165   0.000    0.54000    1.000
fe      0.500   0.165   0.000    0.15500    1.000
si      0.421   0.333   0.275    0.91750    1.000
al      0.421   0.333   0.275    0.08250    1.000
o      0.367   0.324   0.111    1.00000    1.000
o      0.187   0.254   0.338    1.00000    1.000
o      0.445   0.500   0.338    1.00000    1.000
o      0.386   0.000   0.116    1.00000    1.000
_cell_measurement_wavelength    1.541874
_cell_measurement_radiation   'x-rays'
_exptl_crystal_density_diffrn    3.028000
loop_
_pd_peak_d_spacing
_pd_peak_intensity
    10.091158       1000.00
     5.045579          8.57
     4.500000        443.00
     4.449882          1.32
     4.322071        418.25
     4.109875        181.53
     3.860151          1.58
     3.622531        591.32
     3.363719        423.14
     3.358366         93.56
     3.110450        673.78
     2.904778         83.36
     2.694214        315.90
     2.591817         37.77
     2.588323         73.60
     2.562437        404.12
     2.559708        200.51
     2.522789         31.28
     2.505879          4.87
     2.463722          0.64
     2.455320          3.06
     2.390669        413.58
     2.383513        221.19
     2.353970         74.99
     2.250000          5.71
     2.245931        112.21
     2.234565         28.03
     2.224941          9.33
     2.224279         55.57
     2.200567         11.66
     2.196074        117.04
     2.161035         10.09
     2.145307        201.05
     2.136577        106.91
     2.106296         74.19
     2.063807          4.81
     2.054938          0.62
     2.018232         57.72
     2.001394         32.77
     1.978621         49.74
     1.968689        118.40
     1.953441         28.58
     1.930075         19.69
     1.892418         27.04
     1.883981         10.52
     1.870181          4.13
     1.841504          1.76
     1.811266         44.44
     1.740906          8.99
     1.740158          1.17
     1.737826          0.25
     1.731499          1.75
     1.702021         35.54
     1.699080          0.30
     1.698095          0.21
     1.690722         19.84
     1.689938         13.56
     1.681860         19.13
     1.680038          7.14
     1.679183         54.93
     1.676600         14.01
     1.664761        221.33
     1.661420          2.77
     1.659099         14.18
     1.658836          1.46
     1.657351        101.98
     1.638464         44.04
     1.636155         44.06
     1.623031          0.10
     1.615794          8.73
     1.609694          4.24
     1.585505         72.54
     1.581818         54.17
     1.575422          0.00
     1.555225         12.66
     1.552654          5.23
     1.549334          9.14
     1.534511         60.89
     1.527267        109.22
     1.522511         39.88
     1.514869         42.89
     1.502385         14.50
     1.500810        184.69
     1.500000         91.26
     1.499465         23.53
     1.485829          0.02
     1.485673         28.64
     1.483698         28.90
     1.483294         30.59
     1.481609          0.78
     1.471134         12.47
     1.464869          7.07
     1.452389          0.07
     1.448267         13.07
     1.444475          8.31
     1.441594         16.26
     1.440690          3.29
     1.437807          2.80
     1.437155          0.25
     1.436361          2.56
     1.415044          3.74
     1.406874          4.99
     1.392924         44.01
     1.376510          2.05
     1.373392          5.96
     1.372868         17.05
     1.372213          0.27
     1.369958          4.13
     1.367776          2.53
     1.362391         50.81
     1.356405        100.96
     1.347107         10.28
     1.338273          6.52
     1.334414          9.29
     1.313956          0.00
     1.309760          7.16
     1.305137          0.99
     1.304525          3.48
     1.303941         51.60
     1.298423         14.00
     1.298254         31.25
     1.297128          0.98
     1.295909         39.60
     1.294161         68.14
     1.292959         30.83
     1.289312         31.54
     1.286717         31.35
     1.281219          2.26
     1.279854          0.05
     1.272670         17.01
     1.269525         47.91
     1.267745          2.03
     1.265237          8.33
     1.263651          3.52
     1.261395         21.02
     1.252939         11.54
     1.248542         12.28
     1.247530          0.12
     1.246989          0.57
     1.245422         28.64
     1.245299          7.93
     1.244061          5.43
     1.242771         16.25
     1.239786          2.86
     1.238403          4.12
     1.231861          0.49
     1.231299          3.56
     1.231192          1.31
     1.231033          0.37
     1.227660          1.03
     1.227619          6.18
     1.224636         12.84
     1.222793         14.11
     1.219435          2.78
     1.214580          0.63
     1.214485          6.14
     1.213823         27.14
     1.213283          3.95
     1.210694          1.60
     1.207510          6.91
     1.203904          4.97
     1.201160          3.57
     1.200071          0.19
     1.198699         23.03
     1.197927         17.88
     1.195334          0.65
     1.192601          0.04
     1.191757          1.33
     1.188147          1.80
     1.185857          3.68
     1.178338          8.98
     1.176985          2.23
     1.175704          0.12
     1.173483         11.02
     1.172263         11.10
     1.171328          0.00
     1.168765         11.87
     1.167772          2.75
     1.165399          7.23
     1.161646         10.78
     1.153285          0.00
     1.152041          0.13
     1.139906          4.40
     1.137348          2.44
     1.133556          3.59
     1.132029          0.06
     1.131943          0.85
     1.128787          1.88
     1.128558          0.04
     1.125000          0.10
     1.124600          7.71
     1.122966          0.03
     1.122868          0.02
     1.121240          2.28
     1.121044          0.85
     1.119455          0.00
     1.118073          7.80
     1.117283         22.25
     1.116969          0.89
     1.116741          0.01
     1.112471          0.00
     1.112139         45.12
     1.107743          9.31
     1.103443          8.98
     1.100397          0.38
     1.100284          1.34
     1.099384          0.60
     1.098037          0.18
     1.097825          0.00
     1.096667          6.23
     1.096277          1.29
     1.087976          1.13
     1.087858          3.92
     1.084360          2.09
     1.081696          3.65
     1.080518          0.23
     1.072654         40.76
     1.072102          0.05
     1.068903          0.00
     1.068734          0.04
     1.068289         19.72
     1.066910          0.34
     1.063972          0.01
     1.063832         25.53
     1.060154         13.37
     1.059620          0.09
     1.053168          0.01
     1.053148          3.37
     1.049996          1.22
     1.043854          0.09
     1.042537         21.55
     1.042021          2.27
     1.041134          0.45
     1.039401          1.20
     1.039396         20.50
     1.038971          4.96
     1.036817         19.47
     1.032726          0.03
     1.032635          3.47
     1.031977          0.32
     1.031904          7.15
     1.030265          1.20
     1.029918          1.22
     1.027665          0.65
     1.027469          3.68
     1.026876          2.24
     1.025458          1.66
     1.024480          0.06
     1.023359          0.13
     1.022816          2.73
     1.018171          2.21
     1.017370          8.09
     1.017321          7.03
     1.016462          0.24
     1.012418          0.81
     1.011251          0.00
     1.010913          1.02
     1.010407          0.30
     1.009116          3.52
     1.008504         12.35
     1.006270         12.07
     1.004839          8.62
     1.004704          0.00
     1.004137          6.82
     1.003537          1.20
     1.000697          2.61
     1.000573          9.16
     1.000308          0.29
     0.997112         17.15
     0.995440          1.17
     0.995036          1.22
     0.989310          0.03
     0.988511          1.30
     0.988216          8.81
     0.986117          9.29
     0.985521          1.28
     0.984662          0.01
     0.984344          0.00
     0.982649          0.51
     0.982286          2.34
     0.981830          4.21
     0.981715          2.25
     0.981451          2.29
     0.980627         13.59
     0.980167         11.98
     0.980034          6.88
     0.980022         12.74
     0.979633          0.01
     0.977972          0.17
     0.976720          7.44
     0.975182          0.54
     0.973693          0.34
     0.973615          0.13
     0.970441         14.02
     0.969736          0.10
     0.969523         15.33
     0.969002         17.20
     0.968259         18.85
     0.966619          0.00
     0.966235          0.44
     0.965896          2.22
##############################################################################
###                            Comments                                    ###
##############################################################################
###   Diffraction pattern calculated by Match!. 
###   I/Ic calculated by Match!. 
###   Space group has been derived from given symmetry operations. 
##############################################################################


