##############################################################################
###               Crystal structure data exported by Match!                ###
##############################################################################
###                           Data published by:                           ###
###                                                                        ###
###               COD (Crystallography Open Database)
##############################################################################
data_1532512
_citation_journal_full    'Zeitschrift fuer Anorganische und Allgemeine Chemie'
_citation_journal_volume  '629'
_citation_page_first  '1737'
_citation_page_last   '1750'
_citation_year  '2003'
_citation_title  'Theoretical investigation of the solid state reaction of silicon nitrideand silicon dioxide forming silicon oxynitride (Si2 N2 O) under pressure'
loop_
_publ_author_name
  'Kroll P.'
  'Milko M.'
_chemical_formula_sum  'O2 Si'
_chemical_name_common  'Silica'
_symmetry_space_group_name_H-M 'P 32 2 1'
_space_group_IT_number 154
_space_group_crystal_system 'trigonal (hexagonal axes)'
loop_
_symmetry_equiv_pos_as_xyz
   'x, y, z'
   '-y, x-y, z+0.66667'
   '-x+y, -x, z+0.33333'
   'x-y, -y, -z+0.33333'
   '-x, -x+y, -z+0.66667'
   'y, x, -z'
_cell_length_a        4.89150
_cell_length_b        4.89150
_cell_length_c        5.38850
_cell_angle_alpha    90.0000
_cell_angle_beta     90.0000
_cell_angle_gamma   120.0000
_cell_formula_units_Z 3
loop_
_atom_site_label
_atom_site_fract_x
_atom_site_fract_y
_atom_site_fract_z
_atom_site_occupancy
_atom_site_B_iso_or_equiv
si      0.468   0.000   0.667    1.00000    1.000
o      0.413   0.271   0.784    1.00000    1.000
_cell_measurement_wavelength    1.541874
_cell_measurement_radiation   'x-rays'
_exptl_crystal_density_diffrn    2.680000
loop_
_pd_peak_d_spacing
_pd_peak_intensity
     4.236163        202.96
     3.330270       1000.00
     2.445750         75.85
     2.273397         76.93
     2.227084         34.80
     2.118082         52.94
     1.971262         30.61
     1.810902        116.81
     1.796167          3.26
     1.665135         40.95
     1.653658         16.66
     1.601119          2.42
     1.534798         87.55
     1.447699         17.65
     1.412054          3.23
     1.376414         53.31
     1.369910         61.12
     1.365934         42.63
     1.283775         22.20
     1.250693         25.81
     1.222875         12.30
     1.195195         28.07
     1.192551          8.30
     1.179972         21.85
     1.174900         26.87
     1.147930         14.06
     1.136699          2.61
     1.113542          0.22
     1.110090          2.55
     1.076956         26.81
     1.059041          3.78
     1.044431         13.39
     1.039161         10.28
     1.030807         13.57
     1.010840         11.75
##############################################################################
###                            Comments                                    ###
##############################################################################
###   Diffraction pattern calculated by Match!. 
###   I/Ic calculated by Match!. 
###   Space group has been derived from given symmetry operations. 
##############################################################################


