##############################################################################
###               Crystal structure data exported by Match!                ###
##############################################################################
###                           Data published by:                           ###
###                                                                        ###
###               COD (Crystallography Open Database)
##############################################################################
data_9010057
_citation_journal_full    'American Mineralogist'
_citation_journal_volume  '90'
_citation_page_first  '1563'
_citation_page_last   '1570'
_citation_year  '2005'
_citation_title  'Light-induced degradation dynamics in realgar: in situ structuralinvestigation using single crystal X-ray diffraction and X-ray photoelectronspectroscopy Sample: Getchell mine, Nevada'
loop_
_publ_author_name
  'Kyono A.'
  'Kimata M.'
  'Hatta T.'
_chemical_formula_sum  'As S'
_chemical_name_mineral  'Realgar'
_symmetry_space_group_name_H-M 'P 1 21/n 1'
_space_group_IT_number 14
_space_group_crystal_system 'monoclinic'
loop_
_symmetry_equiv_pos_as_xyz
   'x, y, z'
   '-x+0.5, y+0.5, -z+0.5'
   '-x, -y, -z'
   'x+0.5, -y+0.5, z+0.5'
_cell_length_a        9.38000
_cell_length_b       13.56900
_cell_length_c        6.59300
_cell_angle_alpha    90.0000
_cell_angle_beta    105.5500
_cell_angle_gamma    90.0000
loop_
_atom_site_label
_atom_site_fract_x
_atom_site_fract_y
_atom_site_fract_z
_atom_site_occupancy
_atom_site_B_iso_or_equiv
as      0.125   -0.021   0.766    1.00000    5.155
as      0.423   0.139   0.852    1.00000    4.958
as      0.320   0.127   0.173    1.00000    5.100
as      0.041   0.160   0.715    1.00000    5.424
s      0.346   -0.006   0.699    1.00000    5.369
s      0.213   -0.022   0.112    1.00000    5.463
s      0.239   0.225   0.642    1.00000    6.134
s      0.108   0.211   0.048    1.00000    6.458
_cell_measurement_wavelength    1.541874
_cell_measurement_radiation   'x-rays'
_exptl_crystal_density_diffrn    3.516000
loop_
_pd_peak_d_spacing
_pd_peak_intensity
     7.521346         75.56
     6.784500         60.23
     6.009329        416.39
     5.752613        444.13
     5.494596        250.79
     5.425581       1000.00
     4.643697         32.85
     4.636781        111.43
     4.518331          2.57
     4.498447         11.49
     4.393533          0.23
     4.286908         40.07
     4.064941        203.73
     4.044658         26.94
     3.832037         40.13
     3.760673         70.48
     3.684329         42.11
     3.613775          5.14
     3.608137         82.71
     3.392250          5.31
     3.240074         20.69
     3.196592        262.26
     3.196287         22.40
     3.192059         11.73
     3.175858        212.93
     3.175838        362.15
     3.101325         12.70
     3.092270         56.91
     3.057445        282.45
     3.004664          0.21
     2.992244        170.75
     2.982665         50.95
     2.959446        452.52
     2.956088        187.98
     2.954078          0.13
     2.940634          9.55
     2.933602        129.64
     2.876307         68.71
     2.787470         84.48
     2.753071        100.97
     2.747298         11.69
     2.739216        336.78
     2.716559        111.39
     2.712791         81.72
     2.659972          1.77
     2.657534          3.04
     2.653831         41.30
     2.599116        134.26
     2.566627          6.07
     2.533011         14.76
     2.509870         86.44
     2.507115        114.42
     2.502753         13.45
     2.495562          1.65
     2.476723         79.82
     2.473292        115.15
     2.436469         31.81
     2.390198         76.54
     2.363878          0.09
     2.361271         10.85
     2.359565         47.76
     2.343030          0.00
     2.326546         15.07
     2.326428          5.37
     2.321849          9.06
     2.318391          5.18
     2.301526          0.01
     2.288921          0.12
     2.288585          1.72
     2.271109          0.68
     2.261500        100.43
     2.259166         16.47
     2.252388         35.46
     2.249223          0.52
     2.228489         16.45
     2.223900         82.95
     2.208204         12.04
     2.196767         24.28
     2.196316         96.25
     2.193844         70.92
     2.172357          0.78
     2.168098         43.91
     2.146810          1.26
     2.143454         34.80
     2.130487          5.84
     2.130310         72.46
     2.125014         72.90
     2.116580         30.71
     2.104532         27.36
     2.093193          1.77
     2.092004          0.68
     2.091913         22.51
     2.089553          0.17
     2.075083          0.37
     2.065583          2.25
     2.063147          0.08
     2.050902         35.85
     2.040333         12.35
     2.033206          4.95
     2.032471         29.20
     2.029614          2.25
     2.022329         14.69
     2.021097          0.01
     2.021076          2.89
     2.016219         17.62
     2.013948          0.12
     2.003110         12.43
     2.000310         39.70
     1.997546          7.13
     1.981633          9.11
     1.975702         14.55
     1.948642          1.68
     1.948042          2.82
     1.942935          2.52
     1.939433         17.83
     1.928853          6.82
     1.927243          0.59
     1.923593          2.05
     1.921525          5.13
     1.921125          3.86
     1.917538          3.72
     1.916019          8.81
     1.895314          3.98
     1.890471         10.01
     1.880336          5.64
     1.875726         10.32
     1.872919         56.83
     1.866208          7.33
     1.863458         77.83
     1.862619         30.39
     1.859856          2.62
     1.858057         16.53
     1.854012          7.14
     1.844825          2.57
     1.843632          6.02
     1.842165         46.88
     1.831532          2.66
     1.829391          0.82
     1.818175         65.27
     1.816921          0.06
     1.808527         11.93
     1.807903         65.45
     1.806888          2.70
     1.804912         34.89
     1.804068         11.44
     1.796100         17.26
     1.791511          1.56
     1.789618         15.33
     1.789277          7.13
     1.788832          2.70
     1.783760          9.89
     1.781411          0.24
     1.775241          1.05
     1.770157         24.64
     1.764402          7.66
     1.764248         10.21
     1.752492         10.33
     1.746427         12.33
     1.744358          0.42
     1.736273          2.25
     1.732642         13.42
     1.731506          8.73
     1.731345          2.93
     1.724842         24.87
     1.707251         65.04
     1.702554          0.36
     1.696125         27.28
     1.693117         37.79
     1.690702         56.77
     1.689699         70.62
     1.685975          2.90
     1.684766          2.13
     1.678305          2.08
     1.676468         25.57
     1.675690         16.23
     1.670037         16.22
     1.669950          0.05
     1.669346          2.58
     1.669299         16.72
     1.667016          6.54
     1.664907         14.93
     1.654573          1.39
     1.644417          5.15
     1.642114         12.00
     1.641496         37.38
     1.638705          1.58
     1.637126         12.11
     1.632473          0.35
     1.632351          2.60
     1.630220          2.40
     1.630072          8.28
     1.628871          6.92
     1.628863          6.39
     1.628669          0.51
     1.627286          2.69
     1.624608         16.21
     1.620037          6.92
     1.615709         21.66
     1.611631          0.14
     1.603113          0.21
     1.598296          3.09
     1.598144         26.14
     1.596030          1.59
     1.595070          3.00
     1.594756          0.00
     1.593492          7.46
     1.593405          7.84
     1.593178          1.11
     1.592041          4.26
     1.588684          2.84
     1.587929          3.32
     1.587919          0.03
     1.583554          0.72
     1.582853          0.00
     1.582405         10.60
     1.580860          0.20
     1.578795          0.06
     1.577156          3.08
     1.575846          0.56
     1.575571         15.14
     1.560151          2.70
     1.558801          8.20
     1.552277          4.13
     1.552269          0.02
     1.550662         11.00
     1.549624          4.48
     1.547899          2.63
     1.546135          2.72
     1.545594          1.66
     1.545446          1.90
     1.544051         12.09
     1.543534          0.03
     1.543021          3.89
     1.542382          0.65
     1.537925          0.05
     1.531200          3.17
     1.528722          0.16
     1.526485          9.28
     1.522666         25.30
     1.519112         12.41
     1.511010          0.79
     1.509120          1.87
     1.507462         21.17
     1.507017          1.90
     1.506110          0.23
     1.504269          0.15
     1.502946          0.01
     1.502332         21.23
     1.501441          3.13
     1.499482         10.16
     1.498267          2.13
     1.496918          0.21
     1.496122          9.58
     1.494599          3.11
     1.493208         10.85
     1.491561          1.47
     1.491332          0.16
     1.488021          5.83
     1.488015         13.15
     1.487112          2.35
     1.484769          1.77
     1.483185          3.43
     1.479723         34.42
     1.478044          5.52
     1.477934          3.67
     1.477039          0.05
     1.477033          0.38
     1.476881         19.47
     1.476220          0.65
     1.472927          0.00
     1.471121          0.40
     1.470317          3.16
     1.468217          4.35
     1.467203         22.62
     1.466908          1.04
     1.466801          4.27
     1.464511          0.29
     1.462346          0.62
     1.461878          7.12
     1.453342          3.45
     1.449412          7.22
     1.448238          6.54
     1.446878          3.41
     1.443750          0.23
     1.440960          7.99
     1.440149          6.51
     1.438153          4.29
     1.433982          1.50
     1.433724          0.12
     1.430150         17.84
     1.429715          9.37
     1.428969          0.01
     1.425741          0.48
     1.421304          0.10
     1.421219          6.90
     1.419208          1.50
     1.412919          3.10
     1.412491          0.06
     1.411858          0.50
     1.410764          0.01
     1.408405          4.05
     1.408221          0.57
     1.406373          0.74
     1.404932          7.15
     1.404063          1.82
     1.403854          6.07
     1.399423          5.79
     1.395612          0.65
     1.393735          0.55
     1.392981          0.99
     1.390077          2.48
     1.386347          0.01
     1.386182         14.16
     1.384962          1.70
     1.381924          0.97
     1.381162          0.05
     1.380273          0.18
     1.379167          4.27
     1.377366          0.88
     1.376535          0.00
     1.374273          1.51
     1.373649          0.23
     1.372968          0.00
     1.372366          0.76
     1.371615          0.30
     1.370539          0.96
     1.370522          0.11
     1.370188          9.92
     1.369608          1.51
     1.369603          0.27
     1.365211          0.01
     1.363814          0.81
     1.361984          0.57
     1.358279          2.01
     1.356900          0.60
     1.356559          1.74
     1.356395          2.31
     1.354980          1.69
     1.354113          0.29
     1.352202          0.22
     1.351372          0.66
     1.348219          0.10
     1.347961          0.20
     1.347540          5.48
     1.344941          1.57
     1.344559          0.09
     1.342422          1.70
     1.341857          0.31
     1.336976          2.41
     1.332005          0.40
     1.331933          4.82
     1.330622          0.26
     1.330533          0.01
     1.329986          0.08
     1.328767          0.25
     1.328032          0.00
     1.326958          4.65
     1.326916         11.87
     1.325481          0.70
     1.324519          0.01
     1.323881          8.05
     1.323736          1.10
     1.323578          1.59
     1.321895          0.13
     1.320997          2.13
     1.320874          0.44
     1.320089          0.56
     1.316898          0.00
     1.315318          0.13
     1.314370          4.10
     1.313077          0.09
     1.312298          3.57
     1.311748          0.25
     1.310824          0.10
     1.310030          0.40
     1.307848          0.04
     1.307201          1.06
     1.306768          0.32
     1.302436          1.32
     1.302144          0.01
     1.301737          0.80
     1.301628          2.09
     1.301177          1.15
     1.299564          2.50
     1.299558          1.17
     1.298320          0.51
     1.297230          0.19
     1.296189          0.22
     1.294421          0.51
     1.294265          4.00
     1.292916          0.95
     1.287978          0.00
     1.287825          0.65
     1.285529          2.18
     1.285149          0.48
     1.284920          3.48
     1.283593          0.32
     1.283313          0.31
     1.282135          0.25
     1.281862          0.01
     1.279367          0.18
     1.278803          0.78
     1.277346          0.23
     1.277222          0.05
     1.276970          0.04
     1.272782          1.69
     1.272047          0.32
     1.271353          4.82
     1.268198          3.31
     1.266645          0.97
     1.266505          0.72
     1.265794          1.32
     1.265593          0.67
     1.264804          0.09
     1.264475          0.34
     1.262933          1.70
     1.258313          0.08
     1.258058          0.01
     1.257497          0.04
     1.255806          0.48
     1.255688          4.82
     1.255422          0.83
     1.254935          0.00
     1.254336          0.62
     1.254080          0.01
     1.254056          0.08
     1.253982          0.18
     1.253558          0.01
     1.252960          0.10
     1.252344          1.04
     1.251377          3.09
     1.251319          0.13
     1.249394          4.55
     1.248636          0.20
     1.248315          0.22
     1.247781          0.56
     1.246335          0.14
     1.243854          0.37
     1.242988          0.62
     1.241604          0.57
     1.241378          0.53
     1.240246          0.85
     1.239862          0.55
     1.238733          3.13
     1.238362          1.43
     1.237171          0.40
     1.236788          3.42
     1.236646          0.00
     1.236053          0.62
     1.235375          0.24
     1.235309          0.10
     1.234704          0.07
     1.234581          2.97
     1.233289          0.91
     1.233236          0.00
     1.231397          0.60
     1.230648          0.34
     1.230129          0.00
     1.228931          3.58
     1.228918          0.00
     1.228381          0.04
     1.228110          0.40
     1.224540          0.21
     1.223726          0.07
     1.223013          0.01
     1.222295          0.18
     1.222211          1.26
     1.219770          1.75
     1.218782          0.22
     1.218234          0.56
     1.217366          0.20
     1.216517          3.17
     1.216513          0.25
     1.216403          0.04
     1.215658          5.63
     1.214765          4.13
     1.213906          0.00
     1.210921          1.04
     1.209571          2.41
     1.209077          0.02
     1.208350          1.18
     1.206536          0.01
     1.204592          3.03
     1.203672          0.02
     1.202929          0.90
     1.202712          0.57
     1.201866          0.00
     1.200354          1.18
     1.200187          0.05
     1.199329          1.12
     1.198964          0.04
     1.198277          0.43
     1.197179          2.42
     1.196924          1.88
     1.195099          0.35
     1.194929          4.06
     1.194403          1.51
     1.192432          0.90
     1.192199          1.45
##############################################################################
###                            Comments                                    ###
##############################################################################
###   Diffraction pattern calculated by Match!. 
###   I/Ic calculated by Match!. 
##############################################################################


