##############################################################################
###               Crystal structure data exported by Match!                ###
##############################################################################
###                           Data published by:                           ###
###                                                                        ###
###               COD (Crystallography Open Database)
##############################################################################
data_1531392
_citation_journal_full    'Zeitschrift fuer Anorganische und Allgemeine Chemie'
_citation_journal_volume  '627'
_citation_page_first  '1357'
_citation_page_last   '1364'
_citation_year  '2001'
_citation_title  'Neue Erdalkalimetall-Phosphide und -Arsenide des Cobalts'
loop_
_publ_author_name
  'Hellmann A.'
  'Mewis A.'
_chemical_formula_sum  'Co12 Mg2 P7'
_chemical_name_common  'Mg2 Co12 P7'
_symmetry_space_group_name_H-M 'P -6'
_space_group_IT_number 174
_space_group_crystal_system 'hexagonal'
loop_
_symmetry_equiv_pos_as_xyz
   'x, y, z'
   '-x+y, -x, -z'
   '-y, x-y, z'
   'x, y, -z'
   '-x+y, -x, z'
   '-y, x-y, -z'
_cell_length_a        9.01200
_cell_length_b        9.01200
_cell_length_c        3.50400
_cell_angle_alpha    90.0000
_cell_angle_beta     90.0000
_cell_angle_gamma   120.0000
_cell_formula_units_Z 1
loop_
_atom_site_label
_atom_site_fract_x
_atom_site_fract_y
_atom_site_fract_z
_atom_site_occupancy
_atom_site_B_iso_or_equiv
co      0.383   0.440   0.500    1.00000    1.000
mg      0.667   0.333   0.500    1.00000    1.000
p      0.410   0.292   0.000    1.00000    1.000
co      0.155   0.274   0.000    1.00000    1.000
p      0.118   0.408   0.500    1.00000    1.000
mg      0.333   0.667   0.000    1.00000    1.000
p      0.000   0.000   0.000    1.00000    1.000
co      0.234   0.102   0.500    1.00000    1.000
co      0.439   0.063   0.000    1.00000    1.000
_cell_measurement_wavelength    1.541874
_cell_measurement_radiation   'x-rays'
_exptl_crystal_density_diffrn    6.552000
loop_
_pd_peak_d_spacing
_pd_peak_intensity
     7.804621        132.88
     4.506000        222.21
     3.902311         17.78
     3.504000          1.73
     3.196610         25.86
     2.949869         39.82
     2.766088         32.52
     2.607185         22.15
     2.601540          3.03
     2.256663       1000.00
     2.253000         32.26
     2.164612         36.65
     2.088779        124.19
     1.951155         83.31
     1.895070         25.91
     1.841559        266.67
     1.790503        180.98
     1.752000        196.24
     1.709458          3.96
     1.704689        106.18
     1.703108        189.02
     1.632913         19.45
     1.598305          2.04
     1.594405         26.57
     1.560924          3.57
     1.531759          7.19
     1.506350          8.43
     1.502000          5.65
     1.474935          4.62
     1.453188          0.77
     1.425848         18.17
     1.401751          6.40
     1.383044         10.31
     1.380515          2.67
     1.361827         12.43
     1.359412         35.69
     1.303593         33.77
     1.301474          4.82
     1.300770         12.71
     1.283072         15.10
     1.252242         83.10
     1.249740         18.00
     1.221198         98.86
     1.219456         33.98
     1.204838         12.83
     1.190194          4.76
     1.177112         27.41
     1.168000          0.04
     1.165462          2.15
     1.155136          0.73
     1.140312          3.43
     1.130634          0.98
     1.128332          3.39
     1.126957         21.05
     1.126500          1.71
     1.118953          0.74
     1.114946         21.40
     1.094538          4.35
     1.085971         59.10
     1.082306          4.97
     1.072441          8.11
     1.065537          9.32
     1.062457         77.79
     1.044389         11.11
     1.036939          2.58
     1.035162         13.20
     1.034100          8.30
     1.033747         17.02
     1.027906         28.42
     1.017419         17.32
##############################################################################
###                            Comments                                    ###
##############################################################################
###   Diffraction pattern calculated by Match!. 
###   I/Ic calculated by Match!. 
##############################################################################


