##############################################################################
###               Crystal structure data exported by Match!                ###
##############################################################################
###                           Data published by:                           ###
###                                                                        ###
###               COD (Crystallography Open Database)
##############################################################################
data_9014992
_citation_journal_full    'Journal of Solid State Chemistry'
_citation_journal_volume  '92'
_citation_page_first  '273'
_citation_page_last   '285'
_citation_year  '1991'
_citation_title  'Synthesis, crystal structure, and magnetic properties of Co3(HPO4)2(OH)2 related to the mineral lazulite _cod_database_code 1000101'
loop_
_publ_author_name
  'Pizarro J.'
  'Villeneuve G.'
  'Hagenmuller P.'
  'Le Bail A.'
_chemical_formula_sum  'Co3 O10 P2'
_symmetry_space_group_name_H-M 'P 1 21/n 1'
_space_group_IT_number 14
_space_group_crystal_system 'monoclinic'
loop_
_symmetry_equiv_pos_as_xyz
   'x, y, z'
   '-x+0.5, y+0.5, -z+0.5'
   '-x, -y, -z'
   'x+0.5, -y+0.5, z+0.5'
_cell_length_a        7.53100
_cell_length_b        7.51600
_cell_length_c        7.70000
_cell_angle_alpha    90.0000
_cell_angle_beta    121.9100
_cell_angle_gamma    90.0000
loop_
_atom_site_label
_atom_site_fract_x
_atom_site_fract_y
_atom_site_fract_z
_atom_site_occupancy
_atom_site_B_iso_or_equiv
co      0.224   0.273   0.981    1.00000    1.000
co      0.500   0.000   0.000    1.00000    1.000
p      0.997   0.117   0.264    1.00000    1.000
o      0.218   0.029   0.390    1.00000    1.000
o      0.673   0.486   0.354    1.00000    1.000
o      0.015   0.249   0.106    1.00000    1.000
o      0.543   0.732   0.100    1.00000    1.000
o      0.026   0.628   0.275    1.00000    1.000
_cell_measurement_wavelength    1.541874
_cell_measurement_radiation   'x-rays'
_exptl_crystal_density_diffrn    3.579000
loop_
_pd_peak_d_spacing
_pd_peak_intensity
     6.655617        350.09
     4.982780        406.29
     4.932148        100.60
     4.869632         12.69
     3.758000         59.37
     3.696772         20.29
     3.426036        691.66
     3.363702        127.82
     3.327808        379.05
     3.317232       1000.00
     3.272390        116.14
     3.268186        151.56
     3.257923        337.09
     3.239710          6.49
     3.196455         36.52
     3.042885          0.08
     2.997103         30.84
     2.941493         11.47
     2.688970          1.04
     2.658515        150.15
     2.635393        126.21
     2.506087         27.44
     2.491390        127.22
     2.466074         77.03
     2.441773         93.69
     2.434816         64.74
     2.394344         97.34
     2.377412         60.15
     2.358703         18.39
     2.344717        148.35
     2.339378        151.78
     2.332608         33.55
     2.322293        188.88
     2.316248         14.63
     2.296698        119.72
     2.218539         28.72
     2.127779        210.14
     2.099744         97.93
     2.096391         57.11
     2.092637          8.29
     2.085146          3.98
     2.084998          3.88
     2.073934        124.84
     2.072344          7.18
     2.050161         37.06
     2.047520         10.08
     2.043373         29.83
     2.029912         35.51
     2.001527          0.50
     1.988329          0.00
     1.971836          2.81
     1.924597          3.96
     1.910466          3.89
     1.884907         16.49
     1.880709         92.60
     1.879000         84.82
     1.864442          2.93
     1.853687          3.91
     1.848386         21.96
     1.824458         10.18
     1.808317         12.50
     1.805864          0.02
     1.802744         42.14
     1.799485          0.13
     1.794905         26.97
     1.793105          0.12
     1.780419          9.99
     1.778781          0.26
     1.778204         20.90
     1.771805          2.91
     1.769099         34.36
     1.764020          7.21
     1.748633         30.93
     1.746048          1.43
     1.744156         68.46
     1.737627          3.21
     1.737090          0.71
     1.722039          1.74
     1.713018        243.35
     1.688553         16.48
     1.681851          6.90
     1.680934          0.43
     1.675043          0.10
     1.663904         89.63
     1.662228          1.88
     1.660927        113.09
     1.658616        118.01
     1.647166         17.56
     1.645411         20.97
     1.644049         27.56
     1.636195          6.64
     1.634093         34.18
     1.628961        194.24
     1.624570          1.41
     1.623211         66.03
     1.619855         32.23
     1.618324         58.96
     1.612675         12.33
     1.600611          0.00
     1.598228        114.88
     1.596789          9.69
     1.563275         28.98
     1.532359         10.91
     1.526242          0.45
     1.521443          5.70
     1.507617          1.73
     1.504074         15.70
     1.503363         27.98
     1.502667          0.04
     1.501471         56.07
     1.498599         16.68
     1.498551          3.17
     1.494486          9.25
     1.489990          2.22
     1.489130         25.62
     1.487533          8.95
     1.487387          3.53
     1.482315          0.83
     1.479113         19.47
     1.477842         25.88
     1.473506         15.86
     1.470747          6.29
     1.466268          9.46
     1.464959          1.41
     1.463292         12.30
     1.458591         15.25
     1.458123         55.02
     1.453987         26.86
     1.446354         10.39
     1.445126         14.09
     1.438707         16.97
     1.438385         18.77
     1.433837         18.02
     1.430976          1.09
     1.422937          1.99
     1.418932          9.87
     1.417172         14.44
     1.413052         12.44
     1.413032          7.77
     1.409361          7.82
     1.402186          1.70
     1.400215          3.80
     1.395861         26.22
     1.395260          8.76
     1.392482         15.39
     1.389608          6.10
     1.386063          0.21
     1.382577          0.38
     1.378403          8.68
     1.372141         15.94
     1.369923          1.74
     1.368711          1.72
     1.368689          5.15
     1.365669          3.45
     1.365331          0.03
     1.360290          3.12
     1.358990         10.41
     1.347406          3.17
     1.347149          3.27
     1.344485         17.35
     1.343609          0.07
     1.331123          5.30
     1.329257        127.26
     1.323407          0.02
     1.319506          5.75
     1.317697          7.66
     1.313717         19.20
     1.311933          1.04
     1.311046          0.12
     1.310726          6.10
     1.307227         10.78
     1.305318         16.49
     1.302610          0.19
     1.297220          3.63
     1.294305          3.39
     1.291765         19.09
     1.289086          1.08
     1.288647          1.12
     1.288043          8.77
     1.287938          4.43
     1.286079          0.82
     1.280079          4.79
     1.279064          0.51
     1.278635          0.32
     1.275743         21.05
     1.270367          0.57
     1.264958          7.28
     1.264768         15.38
     1.262972          0.10
     1.260474          0.00
     1.259910         15.40
     1.254736          5.39
     1.253044         10.51
     1.252667          0.95
     1.250457         11.40
     1.247624         13.70
     1.245695          3.07
     1.245510          2.40
     1.244444         20.39
     1.242101          0.15
     1.237298          0.97
     1.236716          7.54
     1.235985          0.30
     1.234702          8.75
     1.233037          0.02
     1.232257          3.05
     1.231399          3.37
     1.231052          4.39
     1.230278          3.16
     1.229290          4.20
     1.228341          6.48
     1.225479          0.46
     1.223582         19.17
     1.220886          5.04
     1.217408          8.57
     1.217374          0.39
     1.216787          3.19
     1.216022          6.34
     1.214243          7.12
     1.210442          0.21
     1.206036          0.01
     1.205091          5.08
     1.201713          6.49
     1.197172          3.08
     1.191176          5.99
     1.190803          5.05
     1.189356          3.52
     1.188706         42.16
     1.188492          3.99
     1.187529          0.60
     1.186404          4.57
     1.184675          0.40
     1.184249          6.13
     1.184064          0.26
     1.179352         17.24
     1.175504          7.86
     1.174663          1.09
     1.174218          2.41
     1.173548          1.20
     1.172359          9.16
     1.170916          2.11
     1.169689          0.13
     1.168023          1.34
     1.167480          3.60
     1.166304          2.36
     1.166226          3.48
     1.165971          5.41
     1.165540          0.36
     1.162225          5.73
     1.161608          0.98
     1.161147          3.56
     1.159692          0.07
     1.158982          9.74
     1.158124         34.45
     1.155572          0.53
     1.151959         12.94
     1.151774          8.10
     1.151720          0.02
     1.149916          0.05
     1.148349          0.68
     1.145866          0.02
     1.145518          1.10
     1.144486          1.66
     1.142468          0.02
     1.142313          1.79
     1.142012          1.74
     1.139481          4.43
     1.138848          0.24
     1.133854          5.93
     1.132777         14.61
     1.129820          1.05
     1.127879          0.11
     1.127775          0.10
     1.123773          0.35
     1.122245          4.64
     1.121234          0.02
     1.120689          2.44
     1.120487          1.46
     1.118510          2.38
     1.118502          0.68
     1.115422          0.53
     1.114556          1.31
     1.113886          4.92
     1.113227         14.82
     1.112840          5.26
     1.111691          8.33
     1.109269          4.89
     1.106307          1.26
     1.105744          0.02
     1.102117          6.24
     1.097506          0.26
     1.097382          3.67
     1.096047         23.34
     1.094977          3.09
     1.094952          4.53
     1.093815          0.67
     1.090797          0.76
     1.089395          0.72
     1.086680          3.58
     1.086184          0.79
     1.086121          3.49
     1.085974         11.91
     1.082413          2.15
     1.081693          0.78
     1.079903          1.18
     1.078129          4.25
     1.074373          0.38
     1.073110          0.35
     1.073084          5.75
     1.070525         16.11
     1.070196          0.01
     1.069286          0.31
     1.067029          8.94
     1.065485          2.84
     1.064337          0.06
     1.063890         32.24
     1.062734          0.62
     1.060009          0.03
     1.059597          0.94
     1.059515         17.83
     1.059510         13.08
     1.058883          0.95
     1.057098          0.95
     1.057068          1.67
     1.056777          0.11
     1.056436          3.34
     1.054938          2.86
     1.054906          7.84
     1.053619          2.49
     1.052412          9.75
     1.050233          6.83
     1.049872         15.29
     1.049330          0.27
     1.049280          2.77
     1.048196         13.23
     1.047258          2.98
     1.046443          0.00
     1.046319          0.03
     1.044843          0.15
     1.044666         13.21
     1.042938          2.14
     1.042573          0.01
     1.042499          0.22
     1.042046          2.30
     1.041008         11.61
     1.040628          2.45
     1.039372          5.62
     1.037848         11.62
     1.036967         13.85
     1.036172          7.51
     1.034231          6.22
     1.034151          2.74
     1.033716          3.13
     1.033698          0.03
     1.032473          0.99
     1.031103         10.48
     1.030437          9.25
     1.029935         15.97
     1.029274          1.66
     1.026898          5.86
     1.026455          0.07
     1.025451          7.84
     1.025348          3.09
     1.025080          8.01
     1.023976          0.57
     1.023760          2.62
     1.022712          5.20
     1.022328          0.51
     1.021843          0.59
     1.021686          5.60
     1.021339          0.34
     1.020074          0.21
     1.019887          3.54
     1.017826          0.05
     1.015812          2.09
     1.015649          0.25
     1.014956         11.37
     1.014295          0.28
     1.012207          7.30
     1.011937          0.66
     1.010889          0.87
     1.008674          5.74
##############################################################################
###                            Comments                                    ###
##############################################################################
###   Diffraction pattern calculated by Match!. 
###   I/Ic calculated by Match!. 
##############################################################################


