##############################################################################
###               Crystal structure data exported by Match!                ###
##############################################################################
###                           Data published by:                           ###
###                                                                        ###
###               COD (Crystallography Open Database)
##############################################################################
data_9005029
_citation_journal_full    'European Journal of Mineralogy'
_citation_journal_volume  '2'
_citation_page_first  '63'
_citation_page_last   '77'
_citation_year  '1990'
_citation_title  'An X-ray study of the temperature dependence of the quartz structureSample: at T = 891 K'
loop_
_publ_author_name
  'Kihara K.'
_chemical_formula_sum  'O2 Si'
_chemical_name_mineral  'Quartz'
_symmetry_space_group_name_H-M 'P 62 2 2'
_space_group_IT_number 180
_space_group_crystal_system 'hexagonal'
loop_
_symmetry_equiv_pos_as_xyz
   'x, y, z'
   'x-y, x, z+0.33333'
   '-y, x-y, z+0.66667'
   '-x, -y, z'
   '-x+y, -x, z+0.33333'
   'y, -x+y, z+0.66667'
   'x-y, -y, -z'
   '-x, -x+y, -z+0.33333'
   'y, x, -z+0.66667'
   '-y, -x, -z+0.66667'
   '-x+y, y, -z'
   'x, x-y, -z+0.33333'
_cell_length_a        4.99720
_cell_length_b        4.99720
_cell_length_c        5.45690
_cell_angle_alpha    90.0000
_cell_angle_beta     90.0000
_cell_angle_gamma   120.0000
loop_
_atom_site_label
_atom_site_fract_x
_atom_site_fract_y
_atom_site_fract_z
_atom_site_occupancy
_atom_site_B_iso_or_equiv
si      0.500   0.000   0.000    1.00000    1.787
o      0.415   0.208   0.167    1.00000    4.367
_cell_measurement_wavelength    1.541874
_cell_measurement_radiation   'x-rays'
_cell_measurement_temperature    891.000000
_exptl_crystal_density_diffrn    2.536000
loop_
_pd_peak_d_spacing
_pd_peak_intensity
     4.327702        181.43
     3.390800       1000.00
     2.498600         37.28
     2.308038         20.26
     2.271780          2.06
     2.163851         34.93
     2.011480         26.17
     1.842687        146.78
     1.818967          0.36
     1.695400         10.28
     1.676870          4.51
     1.635718          0.83
     1.566840         58.97
     1.470559          2.46
     1.442567          8.60
     1.402923         31.06
     1.394658          9.23
     1.392370         56.46
     1.301110          5.29
     1.275292         15.76
     1.249300         15.77
     1.217793          0.60
     1.216269         16.10
     1.200289          4.33
     1.197375         17.18
     1.172266         25.00
     1.154019          0.78
     1.135890          0.36
     1.130267          0.18
     1.098676          9.13
     1.081926          6.98
     1.061267          0.24
     1.058248          7.75
     1.047672          9.34
     1.029803          7.55
##############################################################################
###                            Comments                                    ###
##############################################################################
###   Diffraction pattern calculated by Match!. 
###   I/Ic calculated by Match!. 
###   Space group has been derived from given symmetry operations. 
##############################################################################


