##############################################################################
###               Crystal structure data exported by Match!                ###
##############################################################################
###                           Data published by:                           ###
###                                                                        ###
###               COD (Crystallography Open Database)
##############################################################################
data_1514100
_citation_journal_full    'Helvetica Chimica Acta'
_citation_journal_volume  '50'
_citation_page_first  '2023'
_citation_page_last   '2034'
_citation_year  '1967'
_citation_title  'Die Kristallstrukturen von Mn5 O8 und Cd2 Mn3 O8'
loop_
_publ_author_name
  'Oswald H. R.'
  'Wampetich M. J.'
_chemical_formula_sum  'Mn5 O8'
_chemical_name_common  'Manganese Oxide (5/8)'
_symmetry_space_group_name_H-M 'C 1 2/m 1'
_space_group_IT_number 12
_space_group_crystal_system 'monoclinic'
loop_
_symmetry_equiv_pos_as_xyz
   'x, y, z'
   'x+0.5, y+0.5, z'
   '-x, y, -z'
   '-x+0.5, y+0.5, -z'
   '-x, -y, -z'
   '-x+0.5, -y+0.5, -z'
   'x, -y, z'
   'x+0.5, -y+0.5, z'
_cell_length_a       10.34700
_cell_length_b        5.72400
_cell_length_c        4.85200
_cell_angle_alpha    90.0000
_cell_angle_beta    109.4100
_cell_angle_gamma    90.0000
_cell_formula_units_Z 2
loop_
_atom_site_label
_atom_site_fract_x
_atom_site_fract_y
_atom_site_fract_z
_atom_site_occupancy
_atom_site_B_iso_or_equiv
mn      0.000   0.000   0.500    1.00000    1.100
mn      0.000   0.262   0.000    1.00000    1.100
mn      0.730   0.000   0.662    1.00000    1.200
o      0.098   0.234   0.394    1.00000    1.400
o      0.093   0.000   0.905    1.00000    1.400
o      0.611   0.000   0.925    1.00000    1.400
_cell_measurement_wavelength    1.541874
_cell_measurement_radiation   'x-rays'
_exptl_crystal_density_diffrn    4.934000
loop_
_pd_peak_d_spacing
_pd_peak_intensity
     4.937365        239.47
     4.879462        714.94
     4.576235          0.34
     4.082952        381.12
     3.678818         78.46
     3.106022       1000.00
     2.892575        269.62
     2.862000         54.07
     2.828171        292.10
     2.793717        800.26
     2.530044         28.82
     2.468683        555.09
     2.439731        256.17
     2.426529        273.92
     2.400949        185.66
     2.343581        491.46
     2.288118        211.85
     2.223539         38.40
     2.144610          2.47
     2.100125        159.14
     2.041476          3.68
     2.034463          0.73
     1.954441        213.31
     1.937597         17.28
     1.905939         11.63
     1.895561        686.49
     1.872546         23.52
     1.856674         11.87
     1.848887        350.14
     1.847343          4.55
     1.839409          4.66
     1.787171         53.42
     1.773153         35.62
     1.727216          1.02
     1.723983          3.60
     1.695587         53.12
     1.661989        113.54
     1.645788         86.89
     1.638916        104.57
     1.626487          0.00
     1.616980          5.89
     1.600426        190.35
     1.586364        363.98
     1.570721          8.29
     1.553011          3.97
     1.551946         32.93
     1.544562         37.15
     1.541497          2.90
     1.531890         17.03
     1.525412         60.65
     1.496662          0.24
     1.476757        150.98
     1.471876          8.49
     1.457256         83.32
     1.446288         54.34
     1.431000        184.96
     1.430615         92.10
     1.414860         41.22
     1.414086         41.92
     1.407825        349.38
     1.405859         70.45
     1.399551          8.71
     1.396858          4.49
     1.393394         32.87
     1.392885         23.08
     1.376629         10.11
     1.373167         16.41
     1.365782          0.00
     1.364377          1.99
     1.360984          1.65
     1.359251         23.14
     1.354535         25.81
     1.350458         15.34
     1.346144         12.62
     1.335047          1.46
     1.313777          1.40
     1.290829          7.77
     1.290243          8.97
     1.282625         26.70
     1.265022         18.43
     1.257034         44.43
     1.252804         34.67
     1.245570          2.57
     1.240832          1.33
     1.234341         47.22
     1.231513          7.95
     1.229228         36.35
     1.229091         44.73
     1.228821          0.07
     1.226273          0.14
     1.221419          3.67
     1.219866         42.91
     1.213265         28.02
     1.209886         47.16
     1.206523         10.37
     1.204970          0.26
     1.200474         18.19
     1.197833          4.48
     1.186408          3.75
     1.176239          2.45
     1.171790          0.02
     1.168197         23.56
     1.159571          8.07
     1.158893          8.49
     1.158174         19.45
     1.157036         29.14
     1.156550          2.11
     1.147541         26.36
     1.147382          3.81
     1.144354          3.07
     1.144059          0.65
     1.138244          7.36
     1.137003          0.44
     1.134931          8.27
     1.131643         72.89
     1.128783         29.37
     1.125659         22.41
     1.122183          0.12
     1.121657          0.51
     1.115146          3.69
     1.113591          0.01
     1.111770          0.53
     1.107032          7.04
     1.101098          0.74
     1.093590         35.63
     1.091854          0.62
     1.079880          2.59
     1.077931         27.46
     1.075474          1.81
     1.074372          0.15
     1.074171          0.45
     1.072305          6.78
     1.071619          2.80
     1.067809         33.63
     1.066758         64.78
     1.065378          2.73
     1.062327          8.36
     1.058614          2.15
     1.055007          0.10
     1.050353          2.57
     1.050063          3.46
     1.049723         14.10
     1.048885         16.14
     1.043651         22.54
     1.039705         29.71
     1.035341          0.95
     1.034304          5.39
     1.030803          1.25
     1.029580         33.02
     1.029020          2.79
     1.028131          9.67
     1.026551          0.17
     1.026016          0.62
     1.023495          0.24
     1.021026          2.99
     1.020738         20.19
     1.020138         61.28
     1.017232         23.84
##############################################################################
###                            Comments                                    ###
##############################################################################
###   Diffraction pattern calculated by Match!. 
###   I/Ic calculated by Match!. 
###   Space group has been derived from given symmetry operations. 
##############################################################################


