##############################################################################
###               Crystal structure data exported by Match!                ###
##############################################################################
###                           Data published by:                           ###
###                                                                        ###
###               COD (Crystallography Open Database)
##############################################################################
data_1536409
_citation_journal_full    'Physical Review, Serie 3. B - Condensed Matter (18,1978-)'
_citation_journal_volume  '48'
_citation_page_first  '12558'
_citation_page_last   '12565'
_citation_year  '1993'
_citation_title  'Structural properties of alpha-quartz under high pressure andamorphization effects'
loop_
_publ_author_name
  'Di Pompinio A.'
  'Continenza A.'
_chemical_formula_sum  'O2 Si'
_chemical_name_common  'Silica'
_symmetry_space_group_name_H-M 'P 32 2 1'
_space_group_IT_number 154
_space_group_crystal_system 'trigonal (hexagonal axes)'
loop_
_symmetry_equiv_pos_as_xyz
   'x, y, z'
   '-y, x-y, z+0.66667'
   '-x+y, -x, z+0.33333'
   'x-y, -y, -z+0.33333'
   '-x, -x+y, -z+0.66667'
   'y, x, -z'
_cell_length_a        4.54040
_cell_length_b        4.54040
_cell_length_c        5.17610
_cell_angle_alpha    90.0000
_cell_angle_beta     90.0000
_cell_angle_gamma   120.0000
_cell_formula_units_Z 3
loop_
_atom_site_label
_atom_site_fract_x
_atom_site_fract_y
_atom_site_fract_z
_atom_site_occupancy
_atom_site_B_iso_or_equiv
o      0.395   0.315   0.767    1.00000    1.000
si      0.438   0.000   0.667    1.00000    1.000
_cell_measurement_wavelength    1.541874
_cell_measurement_radiation   'x-rays'
_exptl_crystal_density_diffrn    3.239000
loop_
_pd_peak_d_spacing
_pd_peak_intensity
     3.932102        204.14
     3.131096       1000.00
     2.270200        174.49
     2.161813        181.91
     2.079025         59.34
     1.966051        100.97
     1.837934          7.80
     1.725367         14.13
     1.706650         57.17
     1.579958         15.76
     1.565548        105.34
     1.486195          4.61
     1.428478         96.28
     1.373667         40.98
     1.310701          7.13
     1.296811         44.19
     1.288808         84.11
     1.270597         72.03
     1.229175         48.33
     1.169297         28.28
     1.135100          1.08
     1.126043         34.52
     1.124217         17.44
     1.108753         17.48
     1.090569         34.57
     1.080907          4.64
     1.067140          3.13
     1.043699          0.15
     1.039513          5.83
##############################################################################
###                            Comments                                    ###
##############################################################################
###   Diffraction pattern calculated by Match!. 
###   I/Ic calculated by Match!. 
###   Space group has been derived from given symmetry operations. 
##############################################################################


