##############################################################################
###               Crystal structure data exported by Match!                ###
##############################################################################
###                           Data published by:                           ###
###                                                                        ###
###               COD (Crystallography Open Database)
##############################################################################
data_4124054
_citation_journal_full    'Journal of the American Chemical Society'
_citation_journal_volume  '126'
_citation_page_first  '9769'
_citation_page_last   '9775'
_citation_year  '2004'
_citation_title  'Chemical evaluation of hypothetical uninodal zeolites'
loop_
_publ_author_name
  'Foster M.D.'
  'Friedrichs O.D.'
  'Bell R.G.'
  'Paz F.A.A.'
  'Klinowski J.'
_chemical_formula_sum  'O2 Si'
_chemical_name_common  'Silica'
_symmetry_space_group_name_H-M 'R 32'
_space_group_IT_number 155
_space_group_crystal_system 'trigonal (hexagonal axes)'
loop_
_symmetry_equiv_pos_as_xyz
   'x, y, z'
   'x+0.66667, y+0.33333, z+0.33333'
   'x+0.33333, y+0.66667, z+0.66667'
   '-y, x-y, z'
   '-y+0.66667, x-y+0.33333, z+0.33333'
   '-y+0.33333, x-y+0.66667, z+0.66667'
   '-x+y, -x, z'
   '-x+y+0.66667, -x+0.33333, z+0.33333'
   '-x+y+0.33333, -x+0.66667, z+0.66667'
   'x-y, -y, -z'
   'x-y+0.66667, -y+0.33333, -z+0.33333'
   'x-y+0.33333, -y+0.66667, -z+0.66667'
   '-x, -x+y, -z'
   '-x+0.66667, -x+y+0.33333, -z+0.33333'
   '-x+0.33333, -x+y+0.66667, -z+0.66667'
   'y, x, -z'
   'y+0.66667, x+0.33333, -z+0.33333'
   'y+0.33333, x+0.66667, -z+0.66667'
_cell_length_a        7.91341
_cell_length_b        7.91341
_cell_length_c        7.79422
_cell_angle_alpha    90.0000
_cell_angle_beta     90.0000
_cell_angle_gamma   120.0000
_cell_formula_units_Z 9
loop_
_atom_site_label
_atom_site_fract_x
_atom_site_fract_y
_atom_site_fract_z
_atom_site_occupancy
_atom_site_B_iso_or_equiv
o      0.000   0.330   0.000    1.00000    1.000
o      0.192   0.192   0.500    1.00000    1.000
si      0.117   0.450   0.167    1.00000    1.000
_cell_measurement_wavelength    1.541874
_cell_measurement_radiation   'x-rays'
_exptl_crystal_density_diffrn    2.124000
loop_
_pd_peak_d_spacing
_pd_peak_intensity
     5.146667       1000.00
     3.956705        652.59
     3.387680        331.53
     3.136848         50.76
     2.598073         72.76
     2.573333         31.46
     2.458084        203.21
     2.284405         18.74
     2.171740         12.00
     2.157227        139.51
     1.978353         84.20
     1.874267         44.72
     1.846623          0.63
     1.715556         51.83
     1.708375          0.39
     1.693840          7.01
     1.673353         45.14
     1.573975         35.69
     1.568424         38.48
     1.557154         43.77
     1.541192         15.27
     1.520018         18.58
     1.495494         26.52
     1.458050         14.71
     1.418917          3.04
     1.360616          0.38
     1.349929         40.78
     1.335632         23.14
     1.318902          8.37
     1.299037         21.56
     1.296108         91.88
     1.293003         31.58
     1.286667         17.16
     1.277618          4.34
     1.234221         19.88
     1.229042          2.94
     1.223597          7.13
     1.215806          8.95
     1.205330          0.42
     1.176043         38.85
     1.173722          7.72
     1.153017         10.27
     1.142202          7.65
     1.129227          1.20
     1.121073         17.83
     1.115072          6.22
     1.106973          4.08
     1.099048          4.88
     1.097393          7.02
     1.085870         11.57
     1.082338          4.83
     1.078614          1.95
     1.058955          0.99
     1.045616          0.01
     1.040640          4.94
     1.035835          7.65
     1.029333         14.42
     1.022953          9.34
     1.010913         17.40
     1.009437          6.10
##############################################################################
###                            Comments                                    ###
##############################################################################
###   Diffraction pattern calculated by Match!. 
###   I/Ic calculated by Match!. 
##############################################################################


