##############################################################################
###               Crystal structure data exported by Match!                ###
##############################################################################
###                           Data published by:                           ###
###                                                                        ###
###               COD (Crystallography Open Database)
##############################################################################
data_9014880
_citation_journal_full    'Journal of Applied Physics'
_citation_journal_volume  '51'
_citation_page_first  '5362'
_citation_page_last   '5367'
_citation_year  '1980'
_citation_title  'Crystal structure and isothermal compression of Fe2O3, Cr2O3, and V2O3 to 50 kbarsNote: P = 31.4 kbar'
loop_
_publ_author_name
  'Finger L. W.'
  'Hazen R. M.'
_chemical_formula_sum  'Fe2 O3'
_chemical_name_mineral  'Hematite'
_symmetry_space_group_name_H-M 'R -3 c'
_space_group_IT_number 167
_space_group_crystal_system 'trigonal (hexagonal axes)'
loop_
_symmetry_equiv_pos_as_xyz
   'x, y, z'
   'x+0.66667, y+0.33333, z+0.33333'
   'x+0.33333, y+0.66667, z+0.66667'
   '-y, x-y, z'
   '-y+0.66667, x-y+0.33333, z+0.33333'
   '-y+0.33333, x-y+0.66667, z+0.66667'
   '-x+y, -x, z'
   '-x+y+0.66667, -x+0.33333, z+0.33333'
   '-x+y+0.33333, -x+0.66667, z+0.66667'
   'x-y, -y, -z+0.5'
   'x-y+0.66667, -y+0.33333, -z+0.83333'
   'x-y+0.33333, -y+0.66667, -z+0.16667'
   '-x, -x+y, -z+0.5'
   '-x+0.66667, -x+y+0.33333, -z+0.83333'
   '-x+0.33333, -x+y+0.66667, -z+0.16667'
   'y, x, -z+0.5'
   'y+0.66667, x+0.33333, -z+0.83333'
   'y+0.33333, x+0.66667, -z+0.16667'
   '-x, -y, -z'
   '-x+0.66667, -y+0.33333, -z+0.33333'
   '-x+0.33333, -y+0.66667, -z+0.66667'
   'y, -x+y, -z'
   'y+0.66667, -x+y+0.33333, -z+0.33333'
   'y+0.33333, -x+y+0.66667, -z+0.66667'
   'x-y, x, -z'
   'x-y+0.66667, x+0.33333, -z+0.33333'
   'x-y+0.33333, x+0.66667, -z+0.66667'
   '-x+y, y, z+0.5'
   '-x+y+0.66667, y+0.33333, z+0.83333'
   '-x+y+0.33333, y+0.66667, z+0.16667'
   'x, x-y, z+0.5'
   'x+0.66667, x-y+0.33333, z+0.83333'
   'x+0.33333, x-y+0.66667, z+0.16667'
   '-y, -x, z+0.5'
   '-y+0.66667, -x+0.33333, z+0.83333'
   '-y+0.33333, -x+0.66667, z+0.16667'
_cell_length_a        5.01430
_cell_length_b        5.01430
_cell_length_c       13.67330
_cell_angle_alpha    90.0000
_cell_angle_beta     90.0000
_cell_angle_gamma   120.0000
loop_
_atom_site_label
_atom_site_fract_x
_atom_site_fract_y
_atom_site_fract_z
_atom_site_occupancy
_atom_site_B_iso_or_equiv
fe      0.000   0.000   0.355    1.00000    0.559
o      0.305   0.000   0.250    1.00000    0.510
_cell_measurement_wavelength    1.541874
_cell_measurement_radiation   'x-rays'
_exptl_crystal_density_diffrn    5.344000
loop_
_pd_peak_d_spacing
_pd_peak_intensity
     3.665571        297.36
     2.685982       1000.00
     2.507150        744.70
     2.278883         21.04
     2.196728        180.67
     2.069399         19.49
     1.832786        374.35
     1.686352        452.48
     1.629616          5.22
     1.595966         23.39
     1.590409         83.04
     1.479596        303.90
     1.447504        292.58
     1.407298          2.60
     1.342991         29.05
     1.304206        107.26
     1.299317         17.11
     1.256598          1.51
     1.253575         68.64
     1.221857         25.25
     1.208691          9.81
     1.199751          0.56
     1.186131         15.91
     1.183844         40.45
     1.157021         55.21
     1.139442          1.30
     1.135950         84.21
     1.102231          0.39
     1.098364         78.73
     1.072194          8.20
     1.050548         86.67
     1.037336          5.02
     1.034699         26.57
     1.025183          0.31
##############################################################################
###                            Comments                                    ###
##############################################################################
###   Synthetic
###   Diffraction pattern calculated by Match!. 
###   I/Ic calculated by Match!. 
##############################################################################


