##############################################################################
###               Crystal structure data exported by Match!                ###
##############################################################################
###                           Data published by:                           ###
###                                                                        ###
###               COD (Crystallography Open Database)
##############################################################################
data_4124063
_citation_journal_full    'Journal of the American Chemical Society'
_citation_journal_volume  '126'
_citation_page_first  '9769'
_citation_page_last   '9775'
_citation_year  '2004'
_citation_title  'Chemical evaluation of hypothetical uninodal zeolites'
loop_
_publ_author_name
  'Foster M.D.'
  'Friedrichs O.D.'
  'Bell R.G.'
  'Klinowski J.'
  'Paz F.A.A.'
_chemical_formula_sum  'O2 Si'
_chemical_name_common  'Silica'
_symmetry_space_group_name_H-M 'I -4 2 m'
_space_group_IT_number 121
_space_group_crystal_system 'tetragonal'
loop_
_symmetry_equiv_pos_as_xyz
   'x, y, z'
   'x+0.5, y+0.5, z+0.5'
   'y, -x, -z'
   'y+0.5, -x+0.5, -z+0.5'
   '-x, -y, z'
   '-x+0.5, -y+0.5, z+0.5'
   '-y, x, -z'
   '-y+0.5, x+0.5, -z+0.5'
   'x, -y, -z'
   'x+0.5, -y+0.5, -z+0.5'
   '-x, y, -z'
   '-x+0.5, y+0.5, -z+0.5'
   '-y, -x, z'
   '-y+0.5, -x+0.5, z+0.5'
   'y, x, z'
   'y+0.5, x+0.5, z+0.5'
_cell_length_a        9.14022
_cell_length_b        9.14022
_cell_length_c        8.15139
_cell_angle_alpha    90.0000
_cell_angle_beta     90.0000
_cell_angle_gamma    90.0000
_cell_formula_units_Z 16
loop_
_atom_site_label
_atom_site_fract_x
_atom_site_fract_y
_atom_site_fract_z
_atom_site_occupancy
_atom_site_B_iso_or_equiv
si      0.437   0.795   0.681    1.00000    1.000
o      0.645   0.355   0.728    1.00000    1.000
o      0.500   0.784   0.500    1.00000    1.000
o      0.570   0.823   0.809    1.00000    1.000
_cell_measurement_wavelength    1.541874
_cell_measurement_radiation   'x-rays'
_exptl_crystal_density_diffrn    2.344000
loop_
_pd_peak_d_spacing
_pd_peak_intensity
     6.463111       1000.00
     6.083576        449.23
     4.570110         30.77
     4.075695        914.38
     3.653945        921.37
     3.447464        509.57
     3.231556        940.08
     3.041788         20.15
     2.890391        195.17
     2.853904        101.55
     2.604486         17.59
     2.532186        209.77
     2.420681         10.35
     2.357691        231.96
     2.285055          1.47
     2.262820         64.10
     2.154370        151.09
     2.139134         37.03
     2.043815          9.73
     2.037848         15.40
     2.027859          2.09
     1.993168         54.95
     1.943527        134.64
     1.904654        112.39
     1.861196          0.27
     1.853577          4.01
     1.826973         15.72
     1.792545        108.67
     1.783739         43.54
     1.723732         67.43
     1.717674          6.33
     1.665515        111.76
     1.661657         36.72
     1.640856         67.61
     1.615778         11.02
     1.604948         19.47
     1.567535         37.84
     1.523370          0.09
     1.520894          0.07
     1.516728         24.34
     1.514284         35.55
     1.502048        122.51
     1.480456         61.50
     1.477744          2.21
     1.463057         40.87
     1.445196         19.18
     1.443081          0.06
     1.439521          4.37
     1.437431          6.54
     1.426952          1.39
     1.406066         53.94
     1.371205         13.31
     1.362100         94.18
     1.358565         29.12
     1.345937         37.86
     1.343898         57.18
     1.329510         27.78
     1.314956          1.46
     1.313363         21.88
     1.302243          0.01
     1.292622         54.99
     1.289309          7.05
     1.267520          3.28
     1.266093        115.42
     1.263687          6.94
     1.252391         43.41
     1.242478         22.84
     1.240873          8.75
     1.232139         51.35
     1.229520         38.06
     1.220136          3.14
     1.217982          9.07
     1.216715         19.13
     1.210340          7.68
     1.200170          8.18
     1.178845         57.55
     1.176902          0.22
     1.175759         10.11
     1.167761          8.05
     1.158408          0.98
     1.155147          0.01
     1.151291         34.07
     1.149155         10.09
     1.142527         21.07
     1.139717         27.05
     1.131410          0.57
     1.122896         12.57
     1.119926          1.70
     1.108414          0.20
     1.104900          2.57
     1.100119         22.98
     1.091551         11.91
     1.087742          4.73
     1.082734         20.26
     1.077185          2.34
     1.076309          1.18
     1.074829         11.52
     1.073959          3.86
     1.069567          7.06
     1.062529          5.82
     1.060686         15.28
     1.058182          9.46
     1.046282         16.68
     1.045479          7.62
     1.041426         10.62
     1.039844         20.91
     1.034149          3.64
     1.030908         15.18
     1.028164          8.05
     1.026641         16.32
     1.021908          1.03
     1.019151          7.63
     1.018924          8.52
     1.013929          2.07
     1.009368          0.20
     1.007788          3.11
     1.006493          4.43
##############################################################################
###                            Comments                                    ###
##############################################################################
###   Diffraction pattern calculated by Match!. 
###   I/Ic calculated by Match!. 
###   Space group has been derived from given symmetry operations. 
##############################################################################


