##############################################################################
###               Crystal structure data exported by Match!                ###
##############################################################################
###                           Data published by:                           ###
###                                                                        ###
###               COD (Crystallography Open Database)
##############################################################################
data_2002338
_citation_journal_full    'Zeitschrift fuer Anorganische und Allgemeine Chemie'
_citation_journal_volume  '517'
_citation_page_first  '161'
_citation_page_last   '166'
_citation_year  '1984'
_citation_title  'Synthese und Struktur eines Hochtemperatur-Cobaltarsenats(V): H-Co3 (As O4)2'
loop_
_publ_author_name
  'Jasper-Toennies B'
  'Mueller-Buschbaum Hk'
_chemical_formula_sum  'As2 Co3 O8'
_chemical_name_common  'Tricobalt arsenate(V) - HT'
_symmetry_space_group_name_H-M 'P 1 21/c 1'
_space_group_IT_number 14
_space_group_crystal_system 'monoclinic'
loop_
_symmetry_equiv_pos_as_xyz
   'x, y, z'
   '-x, y+0.5, -z+0.5'
   '-x, -y, -z'
   'x, -y+0.5, z+0.5'
_cell_length_a        6.45740
_cell_length_b        8.50960
_cell_length_c       11.18670
_cell_angle_alpha    90.0000
_cell_angle_beta     90.7300
_cell_angle_gamma    90.0000
_cell_formula_units_Z 4
loop_
_atom_site_label
_atom_site_fract_x
_atom_site_fract_y
_atom_site_fract_z
_atom_site_occupancy
_atom_site_B_iso_or_equiv
co      0.241   0.166   0.639    1.00000    1.000
co      0.610   0.056   0.874    1.00000    1.000
co      0.889   0.169   0.445    1.00000    1.000
as      0.391   0.086   0.366    1.00000    1.000
as      0.897   0.046   0.145    1.00000    1.000
o      0.571   0.214   0.422    1.00000    1.000
o      0.963   0.227   0.102    1.00000    1.000
o      0.199   0.070   0.470    1.00000    1.000
o      0.075   0.901   0.117    1.00000    1.000
o      0.296   0.142   0.234    1.00000    1.000
o      0.676   0.997   0.070    1.00000    1.000
o      0.472   0.910   0.325    1.00000    1.000
o      0.862   0.041   0.292    1.00000    1.000
_cell_measurement_wavelength    1.541874
_cell_measurement_radiation   'x-rays'
_exptl_crystal_density_diffrn    4.913000
loop_
_pd_peak_d_spacing
_pd_peak_intensity
     6.772571          9.06
     6.456876          8.02
     5.592896          6.34
     5.143753         31.20
     4.691431         15.92
     4.673794         53.82
     4.655421         79.20
     4.254800        397.98
     4.254392        148.69
     4.201077          0.09
     3.976821        101.73
     3.805317        474.06
     3.767022          1.69
     3.552800         64.46
     3.415149         61.03
     3.392976        415.80
     3.386286         82.32
     3.379278         99.93
     3.228438          1.11
     3.033551        283.29
     3.018504        252.90
     3.008454        387.78
     3.004430        219.94
     2.989423         81.20
     2.923032        516.06
     2.905567       1000.00
     2.811597          2.16
     2.804210         25.76
     2.796448        792.50
     2.780746          1.18
     2.749507        569.16
     2.669652         35.14
     2.656674        186.82
     2.643200        104.97
     2.596987          0.54
     2.581165        177.41
     2.578125         34.28
     2.571877         12.41
     2.563154        400.60
     2.554278          7.90
     2.532564         38.58
     2.529778        134.31
     2.526853          0.17
     2.512052         26.29
     2.500940        148.82
     2.467373          0.20
     2.446444         50.98
     2.360069         62.92
     2.359869        193.12
     2.350848        188.79
     2.345716        138.93
     2.336897        125.66
     2.332532         46.00
     2.327710          3.37
     2.257524         71.78
     2.204932          1.70
     2.189958         23.38
     2.163637         29.49
     2.152292          0.07
     2.136168         74.85
     2.130894         86.08
     2.127400         14.45
     2.127203         41.62
     2.127196          1.98
     2.125925         42.05
     2.107115         16.12
     2.100539         38.32
     2.096493         24.93
     2.090021          1.14
     2.089938         37.71
     2.086586        224.38
     2.063695          2.85
     2.059181          4.75
     2.055786         49.48
     2.046651          0.00
     2.043949          0.10
     2.039328          7.47
     2.020553          8.82
     2.017324         43.34
     2.000167         25.09
     1.996857         16.21
     1.991408          4.85
     1.989762        158.17
     1.988411          0.70
     1.986989         21.04
     1.985714          7.18
     1.980126         42.52
     1.962920          1.10
     1.947103         15.23
     1.920553          2.29
     1.907839         32.48
     1.902768         49.07
     1.902659         19.31
     1.899119          9.96
     1.898115          0.12
     1.897926          0.44
     1.896455          2.57
     1.889277          0.00
     1.887150         56.56
     1.883511         19.02
     1.864299          7.17
     1.856816         24.84
     1.847789          2.31
     1.843411          1.58
     1.830517         28.94
     1.822818          0.00
     1.821107         16.92
     1.811347          3.11
     1.810131         21.57
     1.807665        101.49
     1.797247          0.59
     1.787179        156.54
     1.785083          1.80
     1.779452          7.80
     1.776400          5.50
     1.773518          0.02
     1.758455        114.74
     1.756572         36.24
     1.756322          7.60
     1.752512         14.40
     1.747057         17.32
     1.716212         21.66
     1.715325         77.06
     1.714584         11.43
     1.707574         29.43
     1.701816         34.94
     1.699520         18.91
     1.699281          0.04
     1.697372         20.23
     1.696488         68.28
     1.696478          0.78
     1.695204         85.74
     1.693143          1.30
     1.692220          1.56
     1.690691          4.34
     1.689639         41.95
     1.688073         21.79
     1.682556          0.09
     1.682339          0.11
     1.679510         51.55
     1.662536         44.43
     1.655605         11.13
     1.646081          1.11
     1.645711         42.13
     1.643965         56.95
     1.640880         13.08
     1.634680          3.22
     1.634640         24.21
     1.628946         87.36
     1.628204          7.23
     1.627423          7.37
     1.623434         10.97
     1.614219         66.78
     1.608078          1.69
     1.605618         18.78
     1.599347         53.85
     1.594674          3.91
     1.591613          3.72
     1.585937          7.11
     1.580172         24.82
     1.577778          7.43
     1.577395        183.34
     1.574813          1.56
     1.572972         30.44
     1.570520          6.02
     1.567509          1.50
     1.563810          1.84
     1.557931         28.25
     1.556206          6.88
     1.551807          0.71
     1.549490         77.99
     1.548258          6.67
     1.545677          0.16
     1.541641         94.95
     1.536530         31.08
     1.535384         20.68
     1.530818         78.81
     1.530434          9.82
     1.521658         77.32
     1.520793         40.07
     1.518161         36.62
     1.516776         27.91
     1.516581         32.49
     1.513023          0.02
     1.510807         60.61
     1.509252         62.87
     1.507389          7.08
     1.505533          0.08
     1.504227          1.70
     1.503777         46.84
     1.502476         44.66
     1.502215          0.55
     1.501156         76.94
     1.498065         55.06
     1.497588        134.65
     1.496528          3.05
     1.495946          4.68
     1.494712          0.69
     1.493343         18.72
     1.493252          6.37
     1.490908          2.52
     1.468366          0.01
     1.466031          0.48
     1.465488         20.81
     1.463831         11.14
     1.461516          2.86
     1.461182        140.82
     1.457236          0.04
     1.455955          0.09
     1.455143          3.95
     1.453839          4.44
     1.453538         39.62
     1.452870         55.27
     1.452784         13.07
     1.451619         51.59
     1.449111          0.27
     1.420348         17.65
     1.419287         21.83
     1.418267          0.83
     1.418131         18.90
     1.416321         35.66
     1.408988         16.83
     1.407002          4.02
     1.406386         55.49
     1.405798         18.44
     1.405373          1.90
     1.404821         19.45
     1.402951          5.11
     1.402105          0.78
     1.400359         43.51
     1.398913          3.61
     1.398839          6.15
     1.398224         23.97
     1.397636         60.66
     1.397293          0.19
     1.395942          9.58
     1.393952         27.80
     1.393229         12.54
     1.393154         12.57
     1.392244         15.00
     1.390373         12.00
     1.390145          1.08
     1.386999          0.34
     1.386443          2.22
     1.385243         24.24
     1.381774         13.88
     1.379723          0.23
     1.375200         38.31
     1.374754          3.09
     1.374284          5.98
     1.372903          3.82
     1.372178          8.84
     1.370166         12.22
     1.367591         46.14
     1.367458          5.69
     1.364361         15.91
     1.364089          0.36
     1.363531          0.30
     1.362963          1.30
     1.357864          0.04
     1.357249          7.10
     1.354514          0.00
     1.354252         40.91
     1.352743         12.19
     1.351180          0.06
     1.345810         11.77
     1.345473         31.02
     1.345370          2.85
     1.343758         17.73
     1.335748          1.57
     1.334980          0.65
     1.334826         50.34
     1.330167          0.37
     1.328927         11.17
     1.328337         19.35
     1.327719          4.92
     1.326807          1.25
     1.325771          2.77
     1.325607          1.07
     1.324342         21.22
     1.323609          1.36
     1.322352          2.88
     1.321600         36.93
     1.317894          2.66
     1.308309          0.04
     1.304209         13.15
     1.301523         10.22
     1.300826         14.36
     1.299684          0.00
     1.298494         16.87
     1.297992          6.87
     1.297367         19.54
     1.296191          2.60
     1.291375          0.01
     1.290590          3.42
     1.290583         10.14
     1.289076          0.14
     1.289063          0.91
     1.286239          0.70
     1.285938          0.25
     1.283625          0.01
     1.281577          8.29
     1.278998          0.36
     1.277678          0.04
     1.277139          0.05
     1.276757          1.92
     1.276304         34.32
     1.276055          0.51
     1.274522          1.54
     1.273305         14.43
     1.270325          6.94
     1.268439         24.49
     1.266724          2.10
     1.266282          2.94
     1.264889         11.81
     1.263426          0.69
     1.262994          0.50
     1.261799          1.69
     1.261174          0.68
     1.260014         11.22
     1.259591          5.11
     1.258544         10.13
     1.258124          9.46
     1.256932          9.78
     1.256026          2.04
     1.255814          1.12
     1.255674          5.40
     1.254770          2.42
     1.254134          0.63
     1.253710          6.33
     1.252487          8.06
     1.250951          3.27
     1.250470         17.20
     1.248460          0.64
     1.248152          1.44
     1.248126         32.94
     1.245612          8.09
     1.244304          6.70
     1.242647          6.38
     1.241348          2.38
     1.239948          3.69
     1.235766          2.14
     1.235713          0.24
     1.235302          9.38
     1.233768         10.88
     1.233686          0.60
     1.231790         27.39
     1.229878          0.13
     1.229818          1.61
     1.228501          7.60
     1.228217          0.29
     1.228103          1.38
     1.226610          4.33
     1.224314          1.80
     1.223222         24.12
     1.221569         22.54
     1.219491          1.49
     1.215510          0.74
     1.212714          2.38
     1.212595          4.97
     1.211884          7.50
     1.210909          0.12
     1.209724          0.49
     1.208541          0.75
     1.208460          3.67
     1.205310          1.95
     1.203526          2.83
     1.203268         16.08
     1.201058          3.21
     1.200583          4.02
     1.197840          0.90
     1.194668          7.36
     1.194538          5.86
     1.193009          1.53
     1.192187          3.84
     1.188208         16.22
     1.187920          8.19
     1.187616          0.18
     1.184267          3.63
     1.183905          2.69
     1.182690          0.17
     1.180034         36.01
     1.179991          4.49
     1.179934          4.66
     1.179407          0.60
     1.179188         14.28
     1.178550          0.10
     1.178131          5.49
     1.177267          1.01
     1.176821         13.53
     1.176307          5.37
     1.175724          1.43
     1.175424          0.13
     1.175306          0.04
     1.174952          0.04
     1.174708          4.34
     1.173562          7.96
     1.172858          0.01
     1.171203          0.42
     1.170597          2.92
     1.170282          0.07
     1.169694          0.75
     1.168875          1.82
     1.168726          0.32
     1.168448          1.36
     1.168240          1.23
     1.167905         13.47
     1.167750          0.35
     1.167465         11.06
     1.166999          6.86
     1.166759          2.25
     1.166266          5.47
     1.165952          0.02
     1.165757         19.91
     1.164952          4.54
     1.164543          0.62
     1.163855          0.69
     1.163721          1.21
     1.163116          0.25
     1.160228          0.17
     1.156936          1.67
     1.155944          1.97
     1.155779          1.14
     1.154970          0.52
     1.154107         23.41
     1.152878         35.08
     1.151925          1.40
     1.150394          0.13
     1.148469          4.48
     1.148307          0.29
     1.147635          5.01
     1.147509         31.86
     1.144586          1.66
     1.144467         33.11
     1.144218          0.64
     1.142421          3.89
     1.138476          1.33
     1.138383          7.45
     1.137676          1.19
     1.136918         16.02
     1.136551          2.86
     1.135408          1.80
     1.132769         13.50
     1.132349          7.16
     1.131326          8.40
     1.130992         11.35
     1.128762          2.75
     1.127007          1.72
     1.126426          4.95
     1.125539          0.06
     1.125219          0.42
     1.124682          0.06
     1.124320          3.75
     1.123525          2.43
     1.123336          0.87
     1.120542          0.05
     1.120340          5.87
     1.119801          9.69
     1.118862         12.75
     1.118678          6.99
     1.118579         18.96
     1.117228          1.82
     1.115824          0.32
     1.115078          8.87
     1.114944          4.78
     1.114870          8.87
     1.114625          2.97
     1.114434          6.18
     1.113868          2.63
     1.113357          0.56
     1.110448          2.64
     1.110023          3.02
     1.109039          0.01
     1.104532          0.37
     1.103911          0.93
     1.103809          1.86
     1.103619         33.60
     1.102917          1.51
     1.102466          0.34
     1.099808          1.64
     1.099746          6.14
     1.099551          6.92
     1.099059          0.04
     1.097680          1.01
     1.097407          2.84
     1.095344          4.41
     1.094979          7.80
     1.093793         17.28
     1.093265          8.87
     1.092559          8.40
     1.090759          0.91
     1.090736          0.64
     1.089516          0.68
     1.089481          5.11
     1.089022          0.06
     1.088016          1.53
     1.087774          0.35
     1.087297          1.33
     1.086789          6.81
     1.085265          0.30
##############################################################################
###                            Comments                                    ###
##############################################################################
###   Diffraction pattern calculated by Match!. 
###   I/Ic calculated by Match!. 
##############################################################################


