##############################################################################
###               Crystal structure data exported by Match!                ###
##############################################################################
###                           Data published by:                           ###
###                                                                        ###
###               COD (Crystallography Open Database)
##############################################################################
data_9008135
_citation_journal_full    'Zeitschrift fur Kristallographie'
_citation_journal_volume  '125'
_citation_page_first  '317'
_citation_page_last   '331'
_citation_year  '1967'
_citation_title  'Verfeinerung der struktur des bayerits, Al(OH)3'
loop_
_publ_author_name
  'Rothbauer R.'
  'Zigan F.'
  'O?Daniel H'
_chemical_formula_sum  'Al H3 O3'
_chemical_name_mineral  'Bayerite'
_symmetry_space_group_name_H-M 'P 1 21/a 1'
_space_group_IT_number 14
_space_group_crystal_system 'monoclinic'
loop_
_symmetry_equiv_pos_as_xyz
   'x, y, z'
   '-x+0.5, y+0.5, -z'
   '-x, -y, -z'
   'x+0.5, -y+0.5, z'
_cell_length_a        5.06200
_cell_length_b        8.67100
_cell_length_c        4.71300
_cell_angle_alpha    90.0000
_cell_angle_beta     90.2700
_cell_angle_gamma    90.0000
loop_
_atom_site_label
_atom_site_fract_x
_atom_site_fract_y
_atom_site_fract_z
_atom_site_occupancy
_atom_site_B_iso_or_equiv
al      0.527   0.167   -0.015    1.00000    2.199
o      0.365   -0.011   0.215    1.00000    2.400
o      0.204   0.176   0.777    1.00000    3.000
o      0.344   0.308   0.229    1.00000    0.799
h      0.320   0.520   0.770    1.00000    1.000
h      0.790   0.400   0.730    1.00000    1.000
h      0.320   0.310   0.390    1.00000    1.000
_cell_measurement_wavelength    1.541874
_cell_measurement_radiation   'x-rays'
_exptl_crystal_density_diffrn    2.505000
loop_
_pd_peak_d_spacing
_pd_peak_intensity
     4.712947       1000.00
     4.371553        460.80
     4.335500        240.07
     4.140821          3.87
     3.292820          1.42
     3.211581        124.95
     3.198574        128.61
     3.190768         81.29
     2.703155         34.74
     2.695386          7.28
     2.530972          0.04
     2.509983          2.27
     2.463893         24.67
     2.429587          0.00
     2.356474         54.76
     2.273995          7.97
     2.234176         23.54
     2.225416        334.69
     2.217542        697.51
     2.213246         52.10
     2.185776          1.48
     2.167750          0.01
     2.163513          3.88
     2.155556         21.08
     2.077835          5.13
     2.070783         20.32
     2.070411         10.41
     1.992712          2.05
     1.985988          7.50
     1.979828         29.06
     1.969413         12.04
     1.919099         11.77
     1.913539          0.06
     1.904120          7.83
     1.836617          3.87
     1.834174          0.69
     1.826391          0.16
     1.767652          0.11
     1.763304          0.80
     1.728739         35.06
     1.720632        111.56
     1.719992        201.49
     1.715986         81.08
     1.695373         15.86
     1.687725          9.54
     1.656248          7.44
     1.646410          7.61
     1.640591          5.07
     1.627515          0.46
     1.605790         22.94
     1.599287         18.26
     1.595384         26.30
     1.572427         21.70
     1.570982          0.88
     1.564834          0.00
     1.560312         20.55
     1.555784         25.20
     1.552817          0.07
     1.550135         25.92
     1.548666          0.61
     1.545817          2.84
     1.522993          2.33
     1.520210          0.00
     1.493569          3.13
     1.489636         10.08
     1.483617          1.82
     1.480335          2.46
     1.478483          2.10
     1.477007          6.47
     1.476506          4.21
     1.457184        103.25
     1.445167         55.61
     1.430594          0.40
     1.419573          1.30
     1.416195          0.07
     1.396736          0.59
     1.393761         21.68
     1.390564         20.61
     1.389642          3.22
     1.381669         26.52
     1.380274          1.24
     1.369932          0.51
     1.367905          2.39
     1.357993          1.15
     1.352095          6.16
     1.351578          6.51
     1.347693          2.04
     1.347385          7.43
     1.345457          5.95
     1.337589         33.85
     1.333376          2.27
     1.333057          0.90
     1.332440          1.52
     1.331952          0.77
     1.331502          7.62
     1.330258         84.62
     1.321953          7.07
     1.316511          0.00
     1.310628          0.71
     1.305324          0.03
     1.282595          2.10
     1.280102          3.94
     1.278142          5.76
     1.273221          2.89
     1.272061          6.61
     1.265486          0.10
     1.254992          2.51
     1.252220          4.63
     1.241628          0.45
     1.237116          0.15
     1.234817          1.27
     1.232591          0.06
     1.231947          0.00
     1.224329          2.69
     1.223638         10.45
     1.221439          1.08
     1.220753          0.03
     1.214794          3.60
     1.213902          0.06
     1.213437          0.01
     1.212028         31.69
     1.211633         11.47
     1.209684          0.36
     1.209347          8.72
     1.208832          0.02
     1.203212          7.65
     1.198025          0.13
     1.197685          0.63
     1.196330          1.94
     1.178237         17.66
     1.177633          6.72
     1.175061          0.02
     1.172351          0.26
     1.170446          4.67
     1.167508          1.17
     1.166132          0.00
     1.165506          9.73
     1.164290          0.45
     1.161095          0.88
     1.159242          0.17
     1.157403          0.00
     1.142446          3.31
     1.138806          2.20
     1.138327          0.06
     1.137181          0.68
     1.136998          3.55
     1.136479          1.53
     1.135529          0.09
     1.134846          4.61
     1.133798          5.23
     1.126818          0.60
     1.124564          0.46
     1.117088          7.47
     1.113811          3.07
     1.112708          5.31
     1.112607          0.44
     1.110437          1.09
     1.108931          0.11
     1.108771          6.79
     1.108280          0.02
     1.107931          3.32
     1.106623         18.80
     1.103658          0.28
     1.097607          0.42
     1.096455          0.45
     1.092888          4.66
     1.091065          0.13
     1.083875          3.17
     1.083344          0.57
     1.082341          0.67
     1.081756          0.44
     1.077778          0.29
     1.077411          0.19
     1.074459          0.12
     1.072090          0.02
     1.071118          0.47
     1.070527          0.11
     1.070095          2.76
     1.069724          1.16
     1.068276          1.81
     1.067530          0.40
     1.066244          0.07
     1.066191          1.66
     1.065613          7.76
     1.065593          0.91
     1.063686          1.68
     1.063589          1.10
     1.062038          0.72
     1.059851          0.00
     1.059145          2.66
     1.058273          0.65
     1.056340          0.00
     1.056301          1.58
     1.041973          0.01
     1.041530          0.95
     1.040194          0.10
     1.038917          0.12
     1.038416          0.24
     1.035391          0.47
     1.035205          0.28
     1.034246          0.25
     1.033809          0.01
     1.022251          1.11
     1.017614          2.25
     1.015039          1.25
     1.013888          0.06
     1.013390          0.00
     1.006908          0.85
##############################################################################
###                            Comments                                    ###
##############################################################################
###   Diffraction pattern calculated by Match!. 
###   I/Ic calculated by Match!. 
##############################################################################


