##############################################################################
###               Crystal structure data exported by Match!                ###
##############################################################################
###                           Data published by:                           ###
###                                                                        ###
###               COD (Crystallography Open Database)
##############################################################################
data_9012890
_citation_journal_full    'Proceedings of the Japan Academy'
_citation_journal_volume  '45(10)'
_citation_page_first  '913'
_citation_page_last   '918'
_citation_year  '1969'
_citation_title  'The Existence of Partial Mirrors in Wollastonite'
loop_
_publ_author_name
  'Ito Tei-ichi'
  'Sadanaga Ryoichi'
  'Tak?uchi Yoshio'
  'Tokonami Masayasu'
_chemical_formula_sum  'Ca O3 Si'
_chemical_name_mineral  'Wollastonite-1A'
_symmetry_space_group_name_H-M 'P -1'
_space_group_IT_number 2
_space_group_crystal_system 'triclinic'
loop_
_symmetry_equiv_pos_as_xyz
   'x, y, z'
   '-x, -y, -z'
_cell_length_a        7.94000
_cell_length_b        7.32000
_cell_length_c        7.07000
_cell_angle_alpha    90.0300
_cell_angle_beta     95.3700
_cell_angle_gamma   103.4300
loop_
_atom_site_label
_atom_site_fract_x
_atom_site_fract_y
_atom_site_fract_z
_atom_site_occupancy
_atom_site_B_iso_or_equiv
ca      -0.002   0.249   -0.026    1.00000    1.000
ca      0.700   -0.075   0.264    1.00000    1.000
ca      0.698   0.424   0.261    1.00000    1.000
si      0.314   0.043   0.229    1.00000    1.000
si      0.314   0.614   0.229    1.00000    1.000
si      0.102   0.276   0.442    1.00000    1.000
o      0.100   0.275   0.666    1.00000    1.000
o      0.076   0.769   0.693    1.00000    1.000
o      0.194   0.062   0.037    1.00000    1.000
o      0.194   0.535   0.037    1.00000    1.000
o      0.516   0.129   0.226    1.00000    1.000
o      0.520   0.630   0.233    1.00000    1.000
o      0.224   0.120   0.405    1.00000    1.000
o      0.224   0.492   0.405    1.00000    1.000
o      0.290   0.823   0.260    1.00000    1.000
_cell_measurement_wavelength    1.541874
_cell_measurement_radiation   'x-rays'
_exptl_crystal_density_diffrn    2.909000
loop_
_pd_peak_d_spacing
_pd_peak_intensity
     7.686950        150.14
     7.117949          2.14
     7.037111         15.27
     5.962096          0.01
     5.459106         18.76
     5.062848          3.31
     4.958088          1.82
     4.947785         45.33
     4.704132         24.92
     4.678759         57.19
     4.429385         27.37
     4.052089        156.74
     3.843475        313.29
     3.783343          3.02
     3.769591         80.24
     3.562003          2.96
     3.558975          2.96
     3.518781         47.60
     3.518555        402.98
     3.442936        111.59
     3.322766        645.84
     3.244225         29.10
     3.214558          0.70
     3.206141         16.12
     3.205729         16.11
     3.183427         89.40
     3.150714          0.27
     3.146915          0.27
     3.125809          9.83
     3.106586        161.31
     3.093597         79.03
     3.088691        401.66
     2.981048       1000.00
     2.975729        994.65
     2.959220          1.78
     2.928023         23.57
     2.923477         92.16
     2.801293         27.98
     2.798073         27.89
     2.744883         11.79
     2.729553        104.76
     2.722426          8.33
     2.691808          0.91
     2.686831          0.90
     2.684768         17.90
     2.612981         26.75
     2.562317        106.61
     2.531424         31.77
     2.530742         31.74
     2.524674          0.01
     2.485906          0.00
     2.479044        130.44
     2.476566        124.68
     2.473893        124.29
     2.472639          1.20
     2.432711          0.02
     2.431231          0.56
     2.380786         24.98
     2.372650          0.01
     2.356444         95.44
     2.352066         94.80
     2.345704         59.90
     2.339380         26.26
     2.338201         26.22
     2.336399         47.86
     2.306459        265.18
     2.304132          0.01
     2.294304          0.50
     2.285565         16.21
     2.282218         16.11
     2.269461          0.33
     2.264108          1.35
     2.249401          1.41
     2.243228         11.08
     2.232812          0.00
     2.228574          0.94
     2.225298          0.09
     2.214692         38.47
     2.212778         11.13
     2.211327         38.27
     2.202058          1.72
     2.194228          0.15
     2.186700        181.39
     2.185558          0.99
     2.182633        180.11
     2.182280          0.66
     2.173330         62.16
     2.164261          7.27
     2.142717          0.89
     2.138227          1.44
     2.131296          0.60
     2.093980         18.36
     2.087716         17.32
     2.069474         11.69
     2.067136          2.27
     2.039666          6.49
     2.027930         54.54
     2.026045         54.35
     2.013512          2.78
     2.013032          0.86
     2.007521          1.72
     1.994563          0.35
     1.988485          0.26
     1.987365          0.17
     1.982401         69.78
     1.979581          0.19
     1.979511          3.16
     1.978831          0.19
     1.974885          1.95
     1.953271          6.18
     1.948974          0.35
     1.946551         10.13
     1.940926         17.07
     1.939879         16.46
     1.938224          4.38
     1.938196         16.41
     1.921889         20.21
     1.921738         40.18
     1.921628          6.95
     1.900982          3.96
     1.895231          0.13
     1.894975          0.13
     1.894689         17.54
     1.891671         17.44
     1.885400          3.20
     1.884795         45.45
     1.881658         45.18
     1.877548         12.12
     1.862453         22.74
     1.859274         52.18
     1.857200          7.08
     1.856612         51.87
     1.836473          5.22
     1.829997        380.27
     1.829101          0.50
     1.820838          0.01
     1.819702          0.63
     1.810066         31.63
     1.805336         25.05
     1.795661         52.13
     1.795021         11.40
     1.794572          7.67
     1.793551         51.85
     1.785851          4.12
     1.784287          9.93
     1.781317          9.87
     1.781002          2.68
     1.779487          2.67
     1.773046         29.55
     1.771394          3.69
     1.770787          3.69
     1.759390          3.16
     1.759278        147.04
     1.755115          3.92
     1.752039         49.41
     1.749880          1.77
     1.741681          0.49
     1.735519          1.74
     1.734687          1.73
     1.727020        116.82
     1.726136        116.56
     1.721468         78.05
     1.719632         77.70
     1.717746          9.22
     1.717104          6.87
     1.715836          9.17
     1.713347          0.69
     1.703586          0.13
     1.699886         14.43
     1.698813         16.86
     1.694455          3.61
     1.690723          0.02
     1.689425          0.59
     1.687616          0.31
     1.682775         11.83
     1.680097          4.08
     1.678917         13.08
     1.672462          4.26
     1.672430         14.13
     1.666691          0.52
     1.662504         19.30
     1.661383          9.93
     1.660253          5.51
     1.657862          1.14
     1.653482          3.39
     1.652696          3.29
     1.651061          3.37
     1.649262          6.74
     1.647010          2.15
     1.632837          6.04
     1.627026          1.19
     1.624476          2.07
     1.624005         23.83
     1.623071         23.77
     1.622646          2.06
     1.622113          6.95
     1.615971          5.27
     1.609129         14.92
     1.607279         71.32
     1.604881         70.90
     1.604614          4.77
     1.603315          0.60
     1.603071         60.81
     1.602865         60.78
     1.602556          4.74
     1.595214          0.00
     1.592598          0.00
     1.591713          0.10
     1.591104          0.10
     1.590275          2.98
     1.587035          1.42
     1.584810          0.00
     1.580779          0.50
     1.575357         19.77
     1.574300          1.28
     1.573581          1.72
     1.573457         19.67
     1.568044         11.83
     1.563996         12.73
     1.562905         12.70
     1.562169          1.54
     1.559586          0.19
     1.555184          0.52
     1.553819          2.27
     1.553357         15.02
     1.553293         15.02
     1.549039          7.70
     1.546799          7.66
     1.546175          3.56
     1.544346          3.19
     1.541502          0.23
     1.541257         21.39
     1.539250         21.27
     1.537390         42.36
     1.533079          6.33
     1.532130         17.18
     1.531031         17.13
     1.524127          1.69
     1.520558         18.09
     1.520286         25.49
     1.519439         18.03
     1.514915          2.10
     1.512259          0.19
     1.506971          3.29
     1.495420          1.07
     1.493015          1.55
     1.490992          1.20
     1.490524         16.82
     1.487865         16.70
     1.485902          6.79
     1.483746          6.75
     1.479610         65.13
     1.478253         64.88
     1.476462          0.61
     1.474853          1.01
     1.474816          0.00
     1.473510         19.09
     1.473454          0.08
     1.473022          0.90
     1.472671         26.25
     1.472625          1.01
     1.471100         18.98
     1.465566         20.42
     1.464011         20.34
     1.462209          0.38
     1.462104          9.61
     1.461738          9.60
     1.461385         78.95
     1.454336          1.86
     1.451999          0.03
     1.449670          0.77
     1.446499          2.65
     1.446193          1.31
     1.443345          7.24
     1.442361          7.22
     1.442048          1.17
     1.439314          1.16
     1.435220          0.06
     1.433662         28.48
     1.433488         28.46
     1.433140          1.24
     1.433059          0.06
     1.430273         10.36
     1.430126          4.20
     1.428982          8.73
     1.423751          2.87
     1.423590          0.32
     1.423498          2.03
     1.420960          4.37
     1.420902          3.81
     1.416241          1.07
     1.414538          3.78
     1.413542          0.13
     1.411757          0.13
     1.408660          2.59
     1.407422          7.73
     1.403916          0.04
     1.403202          0.31
     1.402974          4.61
     1.402270          0.04
     1.402162          0.17
     1.401600         11.47
     1.400646         12.24
     1.399036         12.19
     1.397889          0.20
     1.394330          0.60
     1.393816          0.11
     1.389674          7.09
     1.389451          0.49
     1.389220         31.81
     1.389133          0.33
     1.387087          0.06
     1.386770          0.34
     1.382169          0.16
     1.380930          0.07
     1.378592          0.44
     1.378215          1.35
     1.377668          1.35
     1.376690          0.00
     1.375178          0.13
     1.374691          0.04
     1.374289         10.76
     1.372441         10.70
     1.371994          2.37
     1.371137          9.78
     1.367509          0.18
     1.364777          1.40
     1.364737          7.79
     1.362612         23.44
     1.361479         84.97
     1.361369          1.11
     1.361213         23.34
     1.355685          0.90
     1.355592          0.43
     1.355126          0.00
     1.353094          0.12
     1.352792         12.10
     1.350696          1.70
     1.347735          0.34
     1.347705          0.01
     1.347469          0.51
     1.346688         15.36
     1.346629          0.01
     1.346510         21.93
     1.346114          2.71
     1.345904          4.04
     1.344733         12.16
     1.343581          5.32
     1.343416          4.01
     1.342384         10.24
     1.341776         10.22
     1.334301          3.12
     1.333579          4.43
     1.330344          9.86
     1.330326          0.82
     1.327858          0.04
     1.326500          3.86
     1.326273          1.23
     1.326220          0.07
     1.325560          1.53
     1.324208          0.07
     1.324001          3.82
     1.321722          1.10
     1.319490          1.95
     1.319210          0.04
     1.318738          0.04
     1.317280          1.94
     1.315845          0.76
     1.315548          0.01
     1.312963          0.05
     1.311541          0.35
     1.309247          5.06
     1.308918          0.60
     1.306491          0.08
     1.305886          0.21
     1.305759          1.24
     1.305144          0.55
     1.304848          0.08
     1.304240          1.23
     1.304151          2.41
     1.301030          8.25
     1.300872          8.25
     1.299376          0.42
     1.298630          0.42
     1.297897          4.49
     1.293659          0.02
     1.290861          2.14
     1.289835          2.13
     1.288358          3.37
     1.288161         13.30
     1.287031          0.21
     1.287013          1.23
     1.286533          1.71
     1.285640         13.18
     1.284330          1.05
     1.282456          3.35
     1.282400         25.76
     1.282313          3.95
     1.281158          7.87
     1.281038          0.69
     1.279548          0.55
     1.279292          2.08
     1.272595          1.35
     1.272387          0.80
     1.271581          0.01
     1.269177          0.01
     1.268707         37.15
     1.267816         37.04
     1.267432          0.01
     1.266753          0.16
     1.266445          5.41
     1.265712          5.56
     1.265371          5.55
     1.264323          4.99
     1.262724          4.96
     1.262337          1.19
     1.261114          4.98
     1.261074          1.19
     1.257289          4.23
     1.257075          0.35
     1.256530          4.33
     1.254971          2.91
     1.249344          0.64
     1.249222          0.64
     1.246298          0.22
     1.245674          5.16
     1.245381          0.21
     1.243821          5.15
     1.243782          0.04
     1.243779          0.06
     1.242953          3.93
     1.242307          0.04
     1.240790          0.09
     1.240369          0.02
     1.240271          1.01
     1.239571          2.26
     1.239522         26.31
     1.238283          0.48
     1.237934          8.30
     1.236946          0.48
     1.236320          1.52
     1.235700          2.99
     1.235519          0.57
     1.235021          1.51
     1.234937          0.21
     1.232539          0.15
     1.231745          3.92
     1.230170          3.82
     1.229983          3.82
     1.229603          4.92
     1.227585          0.59
     1.226106          2.00
     1.225783          0.26
     1.225494          0.58
     1.222875          0.07
     1.221906          0.04
     1.219714          0.22
     1.217212         12.15
     1.216356          1.65
     1.216309         25.90
     1.216219          0.02
     1.215993          1.64
     1.215615         25.84
     1.215451          0.19
     1.215235          0.21
     1.215037          1.08
     1.214596          0.38
     1.214410          2.91
     1.214174          6.95
     1.212726          1.07
     1.212536          0.18
     1.211553          5.86
     1.211346          0.70
     1.204781          1.36
     1.200898          0.19
     1.200620          1.62
     1.199977          0.23
     1.199912          0.23
     1.199880          4.07
     1.198451          0.03
     1.197193          3.34
     1.196777          0.98
     1.196567          3.34
     1.195659          0.26
     1.195481          3.37
     1.195107          1.62
     1.192419          3.74
     1.192026          0.76
     1.191513          1.91
     1.190393          3.79
     1.188966          3.77
     1.188764          3.08
     1.188129          0.99
     1.187633          0.02
     1.187513          3.07
     1.187334         16.82
     1.186672          0.02
     1.186552          0.21
     1.186538          1.22
     1.186325         16.76
##############################################################################
###                            Comments                                    ###
##############################################################################
###   Diffraction pattern calculated by Match!. 
###   I/Ic calculated by Match!. 
###   Space group has been derived from given symmetry operations. 
##############################################################################


