##############################################################################
###               Crystal structure data exported by Match!                ###
##############################################################################
###                           Data published by:                           ###
###                                                                        ###
###               COD (Crystallography Open Database)
##############################################################################
data_9016646
_citation_journal_full    'Zeitschrift fur Kristallographie'
_citation_journal_volume  '148'
_citation_page_first  '255'
_citation_page_last   '273'
_citation_year  '1978'
_citation_title  'Die wasserstoffpositionen im bayerit, Al(OH)3Note: T = 4 K'
loop_
_publ_author_name
  'Zigan F.'
  'Joswig W.'
  'Burger N.'
_chemical_formula_sum  'Al H3 O3'
_chemical_name_mineral  'Bayerite'
_symmetry_space_group_name_H-M 'P 1 21/n 1'
_space_group_IT_number 14
_space_group_crystal_system 'monoclinic'
loop_
_symmetry_equiv_pos_as_xyz
   'x, y, z'
   '-x+0.5, y+0.5, -z+0.5'
   '-x, -y, -z'
   'x+0.5, -y+0.5, z+0.5'
_cell_length_a        5.06260
_cell_length_b        8.67190
_cell_length_c        9.42540
_cell_angle_alpha    90.0000
_cell_angle_beta     90.2600
_cell_angle_gamma    90.0000
loop_
_atom_site_label
_atom_site_fract_x
_atom_site_fract_y
_atom_site_fract_z
_atom_site_occupancy
_atom_site_B_iso_or_equiv
al      0.511   0.164   0.000    1.00000    1.309
al      0.033   0.332   -0.002    1.00000    1.309
o      0.130   0.507   0.388    1.00000    0.499
o      0.357   0.325   0.102    1.00000    0.499
o      0.712   0.306   0.383    1.00000    0.499
o      0.882   0.493   0.111    1.00000    0.499
o      0.658   0.675   0.399    1.00000    0.499
o      0.283   0.694   0.114    1.00000    0.499
h      0.053   0.502   0.294    1.00000    1.839
h      0.316   0.303   0.206    1.00000    1.839
h      0.746   0.275   0.288    1.00000    1.839
h      0.693   0.466   0.129    1.00000    1.839
h      0.560   0.583   0.388    1.00000    1.839
h      0.360   0.601   0.152    1.00000    1.839
_cell_measurement_wavelength    1.541874
_cell_measurement_radiation   'x-rays'
_exptl_crystal_density_diffrn    2.504000
loop_
_pd_peak_d_spacing
_pd_peak_intensity
     6.381710          0.01
     4.712651       1000.00
     4.468377          0.24
     4.451504          0.11
     4.372057        506.50
     4.335950        237.44
     4.140719          0.44
     3.972081          2.59
     3.960214          0.22
     3.939120          0.05
     3.293184          2.56
     3.211444        103.90
     3.198919        105.07
     3.190855        121.72
     3.111743          0.14
     3.106028          0.26
     2.953885          0.11
     2.763585          0.00
     2.703156         35.54
     2.695673          0.02
     2.674935          0.01
     2.664080          0.40
     2.556094          0.44
     2.546618          0.03
     2.544109          0.92
     2.531274          2.57
     2.510253          0.04
     2.464037         20.87
     2.429875          1.12
     2.427055          1.30
     2.424341          0.00
     2.356326         47.73
     2.355423          0.00
     2.350467          0.17
     2.276569          0.05
     2.273878          4.88
     2.269866          0.02
     2.234189         26.75
     2.225752        379.22
     2.217617        718.41
     2.213480         53.77
     2.186029          1.89
     2.167975          0.10
     2.163539          7.37
     2.155875         28.36
     2.131342          1.84
     2.127669          1.47
     2.127237          0.05
     2.112804          0.34
     2.077656         12.77
     2.070866          9.40
     2.070359         15.46
     1.992924          1.11
     1.986040         24.57
     1.980107         12.35
     1.969560         22.19
     1.963296          0.08
     1.958992          0.57
     1.950519          0.17
     1.949109          0.49
     1.926153          0.04
     1.918988         10.59
     1.918049          0.04
     1.913634          0.35
     1.904335          0.83
     1.867854          0.37
     1.865380          0.04
     1.842043          0.08
     1.836720         13.59
     1.834367          0.31
     1.826398          0.23
     1.797707          0.28
     1.791114          1.19
     1.784376          0.12
     1.769196          0.10
     1.767727          2.45
     1.763953          0.08
     1.763539          3.65
     1.733489          1.33
     1.728752          0.02
     1.728625         32.91
     1.728556          0.61
     1.720819        123.08
     1.719947        267.10
     1.716089         90.10
     1.705741          0.24
     1.695273          8.97
     1.687907          9.68
     1.684261          0.24
     1.681542          0.10
     1.662411          0.00
     1.659796          0.20
     1.656445         10.59
     1.646592         12.97
     1.640764         14.53
     1.638083          0.23
     1.633919          0.12
     1.632682          1.75
     1.630999          0.14
     1.630204          2.33
     1.627652          0.75
     1.626070          0.12
     1.622838          0.16
     1.621215          0.30
     1.616856          0.19
     1.616053          0.04
     1.605722         32.30
     1.599459         37.30
     1.595428         36.55
     1.578980          0.03
     1.572612         21.06
     1.570884          0.38
     1.564904          0.00
     1.560549         30.80
     1.555872         28.34
     1.553014          0.30
     1.552235          0.07
     1.550243         29.58
     1.550105          0.56
     1.548828          0.04
     1.545728          0.57
     1.522996          4.62
     1.520316          0.07
     1.518382          0.25
     1.508996          0.00
     1.505739          0.06
     1.493644          2.41
     1.492566          0.29
     1.489856          9.41
     1.489459          0.31
     1.486282          0.13
     1.483835          0.14
     1.483585          0.60
     1.480201          7.15
     1.478642          0.18
     1.476942          4.10
     1.476514          4.87
     1.467964          1.09
     1.462578          0.50
     1.460204          0.32
     1.457352        121.66
     1.456664          1.60
     1.455255          0.22
     1.453499          0.01
     1.445317         73.20
     1.441091          0.02
     1.439386          0.08
     1.430749          0.02
     1.430360          0.40
     1.428618          0.06
     1.424826          0.23
     1.422521          0.07
     1.419466          0.16
     1.416214          0.01
     1.415083          0.27
     1.414006          0.14
     1.408664          0.18
     1.403903          0.03
     1.396799          0.38
     1.393841         39.79
     1.390761         22.78
     1.389788          4.12
     1.381793         36.54
     1.380240          1.59
     1.375169          0.00
     1.374674          0.03
     1.370707          0.02
     1.370023          0.79
     1.368265          0.00
     1.368071          0.35
     1.357963          3.17
     1.352283          7.54
     1.351578          6.03
     1.347837          2.91
     1.347418          6.86
     1.345560          1.50
     1.341994          0.02
     1.337467         48.49
     1.337421          0.02
     1.333481          0.31
     1.332985          3.90
     1.332580          0.09
     1.332040          0.80
     1.331653         18.18
     1.330529          0.00
     1.330290        115.79
     1.324027          0.01
     1.321839         14.12
     1.320071          0.00
     1.319213          0.19
     1.317905          0.29
     1.316598          0.66
     1.313040          0.00
     1.310611          0.38
     1.305503          0.45
     1.303350          0.00
     1.302704          0.00
     1.300831          0.00
     1.299770          0.00
     1.288249          0.12
     1.285897          0.01
     1.285412          0.03
     1.282678          1.03
     1.280277          6.80
     1.278047          5.33
     1.276342          0.01
     1.273309         10.29
     1.272054          7.10
     1.271573          0.00
     1.270401          0.01
     1.265637          0.48
     1.260159          0.10
     1.255127          5.20
     1.254488          0.04
     1.252369          1.72
     1.247612          0.01
     1.247061          0.19
     1.245034          0.02
     1.244510          0.01
     1.243778          0.00
     1.242187          0.37
     1.241929          0.37
     1.241627          0.01
     1.241564          0.01
     1.240731          0.02
     1.238518          0.09
     1.238301          0.21
     1.237281          0.51
     1.236715          0.02
     1.234778          0.25
     1.232635          0.06
     1.232018          0.13
     1.228278          0.08
     1.227647          0.00
     1.224492          0.24
     1.224352          2.47
     1.223716         11.65
     1.221569          1.47
     1.220937          0.00
     1.220553          0.01
     1.214937         11.55
     1.213834          0.36
     1.213528          0.28
     1.212170         47.96
     1.211711         17.11
     1.210089          0.02
     1.209772          0.60
     1.209483          7.59
     1.209013          0.50
     1.205634          0.40
     1.205065          0.08
     1.204303          0.17
     1.203338         10.41
     1.200139          0.64
     1.199153          0.39
     1.198136          0.86
     1.197734          2.04
     1.196428          2.22
     1.193811          0.09
     1.193487          0.00
     1.187668          0.00
     1.185444          0.01
     1.179920          0.01
     1.178163         25.01
     1.177711         10.44
     1.175570          0.00
     1.175234          0.03
     1.172434          0.27
     1.170599         15.57
     1.167438          0.70
     1.166462          0.00
     1.166230          0.02
     1.165627         14.70
     1.165150          0.37
     1.164655          0.06
     1.164304          0.01
     1.161556          0.02
     1.161109          1.62
     1.159378          0.15
     1.157552          0.00
     1.155162          0.00
     1.152482          0.07
     1.151285          0.34
     1.150789          0.02
     1.150126          0.28
     1.148459          0.38
     1.146982          0.01
     1.144446          0.01
     1.143820          0.01
     1.142374          6.56
     1.141071          0.04
     1.138704          4.31
     1.138284          0.22
     1.138256          0.00
     1.137304          0.04
     1.136939          3.04
     1.136464          5.20
     1.135517          0.46
     1.134933          7.47
     1.134825          0.73
     1.133850          6.96
     1.131504          0.16
     1.129964          0.27
     1.127503          0.06
     1.126897          0.23
     1.124725          0.28
     1.124137          0.08
     1.123328          0.00
     1.119298          0.00
     1.117966          0.00
     1.117094         11.72
     1.116623          0.02
     1.114774          0.04
     1.113750          0.38
     1.112876          5.77
     1.112726          0.47
     1.110349          0.47
     1.109050          0.17
     1.108809          7.23
     1.108272          0.08
     1.107940          7.04
     1.106740         28.43
     1.105309          0.03
     1.104795          0.03
     1.103824          0.94
     1.101189          0.02
     1.097728          0.86
     1.097651          0.01
     1.096529          0.37
     1.093014          4.56
     1.091022          0.09
     1.090728          0.04
     1.089988          0.07
     1.089480          0.03
     1.089154          0.16
     1.086225          0.44
     1.086217          0.07
     1.085809          0.00
     1.085252          0.13
     1.083987          3.42
     1.083432          0.05
     1.082465          0.71
     1.081769          0.02
     1.077937          0.51
     1.077437          0.03
     1.076889          0.00
     1.074594          0.90
     1.072148          0.01
     1.071211          0.68
     1.070481          0.30
     1.069991          7.34
     1.069805          0.50
     1.068411          0.22
     1.067460          0.58
     1.066306          1.21
     1.066282          0.45
     1.065671          2.15
     1.065614         14.10
     1.063834          1.50
     1.063618          0.79
     1.063580          0.00
     1.061938          0.87
     1.059962          1.24
     1.059126          1.66
     1.058312          0.17
     1.056424          1.21
     1.056402          2.70
     1.054831          0.02
     1.053433          0.03
     1.053211          0.06
     1.050174          0.01
     1.049543          0.13
     1.048226          0.05
     1.047113          0.21
     1.045819          0.00
     1.045306          0.01
     1.043852          0.27
     1.043650          0.01
     1.042557          0.10
     1.041992          0.24
     1.041610          0.06
     1.041538          0.37
     1.040988          0.07
     1.040837          0.00
     1.040251          0.00
     1.040108          0.03
     1.039702          0.00
     1.038828          0.18
     1.038566          0.08
     1.037248          0.04
     1.035433          0.12
     1.035343          0.07
     1.035285          0.07
     1.035180          0.10
     1.034338          0.52
     1.033917          0.06
     1.033583          0.59
     1.031072          0.08
     1.026467          0.00
     1.024937          0.15
     1.024710          0.00
     1.024621          0.00
     1.023243          0.53
     1.022368          2.45
     1.020663          0.00
     1.019474          0.07
     1.019351          0.07
     1.019192          0.38
     1.017984          0.00
     1.017585          0.12
     1.017543          0.00
     1.016805          0.10
     1.016464          0.03
     1.016007          0.03
     1.014989          0.76
     1.014790          0.07
     1.013997          0.00
     1.013798          0.05
     1.013402          0.08
     1.007203          0.14
     1.006954          2.59
##############################################################################
###                            Comments                                    ###
##############################################################################
###   Synthetic
###   Diffraction pattern calculated by Match!. 
###   I/Ic calculated by Match!. 
##############################################################################


