##############################################################################
###               Crystal structure data exported by Match!                ###
##############################################################################
###                           Data published by:                           ###
###                                                                        ###
###               COD (Crystallography Open Database)
##############################################################################
data_9008237
_citation_journal_full    'Zeitschrift fur Kristallographie'
_citation_journal_volume  '139'
_citation_page_first  '129'
_citation_page_last   '135'
_citation_year  '1974'
_citation_title  'Refinement of the crystal structure of gibbsite, Al(OH)3Locality: Langesundfjord, Norway'
loop_
_publ_author_name
  'Saalfeld H.'
  'Wedde M.'
_chemical_formula_sum  'Al H3 O3'
_chemical_name_mineral  'Gibbsite'
_symmetry_space_group_name_H-M 'P 1 21/n 1'
_space_group_IT_number 14
_space_group_crystal_system 'monoclinic'
loop_
_symmetry_equiv_pos_as_xyz
   'x, y, z'
   '-x+0.5, y+0.5, -z+0.5'
   '-x, -y, -z'
   'x+0.5, -y+0.5, z+0.5'
_cell_length_a        8.68400
_cell_length_b        5.07800
_cell_length_c        9.73600
_cell_angle_alpha    90.0000
_cell_angle_beta     94.5400
_cell_angle_gamma    90.0000
loop_
_atom_site_label
_atom_site_fract_x
_atom_site_fract_y
_atom_site_fract_z
_atom_site_occupancy
_atom_site_B_iso_or_equiv
al      0.168   0.529   -0.002    1.00000    0.570
al      0.334   0.024   -0.002    1.00000    0.574
o      0.178   0.218   -0.112    1.00000    0.779
o      0.669   0.656   -0.102    1.00000    0.790
o      0.498   0.132   -0.104    1.00000    0.776
o      -0.021   0.629   -0.107    1.00000    0.798
o      0.297   0.718   -0.105    1.00000    0.813
o      0.819   0.149   -0.102    1.00000    0.760
h      0.101   0.152   -0.124    1.00000    1.000
h      0.595   0.573   -0.098    1.00000    1.000
h      0.503   0.137   -0.190    1.00000    1.000
h      -0.029   0.801   -0.107    1.00000    1.000
h      0.293   0.724   -0.196    1.00000    1.999
h      0.815   0.160   -0.190    1.00000    1.000
_cell_measurement_wavelength    1.541874
_cell_measurement_radiation   'x-rays'
_exptl_crystal_density_diffrn    2.421000
loop_
_pd_peak_d_spacing
_pd_peak_intensity
     6.730374          0.01
     6.220359          1.68
     4.852726       1000.00
     4.499359          0.38
     4.380040        350.06
     4.328376        167.94
     4.053647          0.13
     3.933681          0.04
     3.508332          0.00
     3.365187         60.39
     3.318233        105.79
     3.294091          1.68
     3.188565         79.10
     3.178132          5.53
     3.112305          0.11
     3.110180         35.84
     3.063656          3.09
     2.954722          0.41
     2.827742          2.27
     2.805131          3.57
     2.728472          0.24
     2.707989          5.90
     2.653559          0.11
     2.652242          8.03
     2.553854          0.07
     2.539000          0.43
     2.508814          1.37
     2.470521         74.86
     2.456338        134.56
     2.436370          0.35
     2.426363         31.10
     2.389456        202.30
     2.380971          5.64
     2.375582          3.77
     2.350717          9.82
     2.293934         46.43
     2.249679         72.23
     2.243458          5.59
     2.241633          3.80
     2.197071          2.90
     2.191794          8.29
     2.190020          0.00
     2.189282          0.45
     2.168550         97.21
     2.164188          0.32
     2.159436         13.27
     2.158163          4.38
     2.154919          0.68
     2.118171          0.09
     2.087320          9.66
     2.073453          1.23
     2.052107        153.78
     2.048469          5.80
     2.037439          4.79
     2.026823          9.00
     2.012345          3.70
     1.997333        114.06
     1.990916          2.18
     1.978876          2.22
     1.967378          4.53
     1.966841         14.90
     1.926902          0.01
     1.925696          2.99
     1.922936          2.60
     1.920789          9.44
     1.919596         75.66
     1.906165          0.60
     1.899720          4.01
     1.890912          0.48
     1.889205          0.59
     1.862840          0.23
     1.852206          1.30
     1.848245          0.46
     1.813138          0.03
     1.807383        135.02
     1.806636          0.57
     1.801559          0.30
     1.796559          3.98
     1.780752          0.05
     1.754166        123.50
     1.753519          4.87
     1.748876          0.18
     1.743447          0.13
     1.738701         11.24
     1.728258          0.02
     1.718225          0.51
     1.700389         11.81
     1.687064        122.70
     1.682594         12.12
     1.681586          0.01
     1.681190          1.20
     1.673097          0.03
     1.667497          0.01
     1.661208          6.45
     1.659117         26.36
     1.647046         10.26
     1.643006          2.13
     1.641548          3.05
     1.640209          0.56
     1.638720         11.44
     1.636097          1.11
     1.633276          2.03
     1.629944          0.14
     1.617575          0.00
     1.607930          3.06
     1.605976          0.55
     1.598231          0.03
     1.597196          0.66
     1.596334          3.03
     1.594282         24.32
     1.589092         10.28
     1.589066          8.98
     1.579393          0.01
     1.579037          6.34
     1.576413         20.84
     1.564405          6.49
     1.563169          0.41
     1.556153          1.82
     1.555090         11.19
     1.554615          0.06
     1.548970          0.03
     1.542066          0.78
     1.541267          0.00
     1.538521          0.21
     1.537549          4.35
     1.534924          0.55
     1.531828          6.00
     1.518483          6.22
     1.512152          8.89
     1.508130          3.80
     1.504886          1.71
     1.501948          0.94
     1.499786          0.14
     1.498032          5.53
     1.487857          0.20
     1.486979          3.78
     1.486928          0.83
     1.486747          5.05
     1.486513          5.22
     1.482399          0.02
     1.478584          0.06
     1.477361          3.14
     1.468734          2.12
     1.462249          0.13
     1.460013         96.83
     1.452350          0.00
     1.443366          0.26
     1.442792         54.86
     1.435337          0.05
     1.433492          0.20
     1.433281          1.53
     1.430433          0.49
     1.428687          0.13
     1.424585          0.12
     1.419628          1.23
     1.418546          0.38
     1.413871         31.95
     1.413815         37.65
     1.407812          5.00
     1.404218         50.70
     1.402565          4.81
     1.401981          0.13
     1.401307          0.26
     1.397068          1.41
     1.397051          0.03
     1.388782          0.01
     1.388240          0.01
     1.387860          2.17
     1.386287          0.01
     1.382909         18.10
     1.380537          4.65
     1.364236         34.34
     1.362061          1.10
     1.361655          4.34
     1.361123          4.48
     1.359455          0.26
     1.353995          6.56
     1.352430          0.24
     1.351216          0.03
     1.348360          0.92
     1.347828          6.54
     1.346075          0.04
     1.341857          0.00
     1.341095          0.03
     1.339675          0.52
     1.337532          0.00
     1.337348          0.06
     1.333980          4.83
     1.333296         16.27
     1.329662          0.15
     1.326780         10.31
     1.326121          3.63
     1.325826          0.03
     1.318787         30.52
     1.313146          3.40
     1.312290          0.58
     1.312162          0.18
     1.311227          0.05
     1.308286          0.23
     1.306874          0.07
     1.306357          0.01
     1.304840          0.16
     1.302720          0.42
     1.301975          7.45
     1.301137          0.03
     1.294941          0.01
     1.290219          0.41
     1.285622          0.72
     1.277717          0.00
     1.276927          5.80
     1.275745          0.01
     1.273735          0.24
     1.271692          0.00
     1.269929          2.15
     1.269500          0.68
     1.269081          2.17
     1.266446          0.05
     1.258777          2.31
     1.256066          3.41
     1.255088          1.27
     1.254451          0.33
     1.254407          4.33
     1.252748          0.19
     1.251242          0.00
     1.250487         13.90
     1.249112          2.18
     1.247502          2.22
     1.246300          0.73
     1.244072          0.01
     1.243860          2.03
     1.241655          0.02
     1.241337          0.03
     1.239120          0.08
     1.235260          6.83
     1.233316          7.54
     1.228169          5.81
     1.220131          0.17
     1.219394          3.93
     1.218185          9.20
     1.216877         11.19
     1.216738          1.64
     1.214763          0.21
     1.213181         17.91
     1.212954          0.00
     1.212804          0.18
     1.212618          3.67
     1.212065          0.66
     1.212042          0.58
     1.210341          5.21
     1.209283          0.16
     1.208337          0.29
     1.206792          0.00
     1.205387          0.51
     1.203798          0.14
     1.202710          0.02
     1.201560          6.79
     1.199115          0.01
     1.198426          1.63
     1.197678          9.46
     1.196906          2.58
     1.194728         12.51
     1.193653          0.94
     1.193319          0.02
     1.193259          0.01
     1.192960          1.93
     1.192959          3.18
     1.190485          1.85
     1.189928          3.39
     1.189917          0.00
     1.189277          0.06
     1.187846          4.88
     1.187791          3.65
     1.186917          0.13
     1.181769          3.12
     1.181429          1.83
     1.181397          3.86
     1.179974          0.02
     1.179626         11.85
     1.178740          0.03
     1.175473          3.97
     1.175358          1.73
     1.171981          0.01
     1.169444          0.01
     1.167817          2.86
     1.167019          1.02
     1.166398          2.89
     1.162016          0.06
     1.161343          0.08
     1.159397          2.22
     1.158141          0.20
     1.157300          3.48
     1.155765          2.23
     1.154769          2.54
     1.150816          0.20
     1.150228          0.41
     1.150217          1.77
     1.149459          0.00
     1.148510          1.33
     1.146967         15.26
     1.145958          2.01
     1.145592          0.42
     1.145168          0.04
     1.144978          0.00
     1.144851          1.45
     1.143344          3.69
     1.138316          0.02
     1.131757          0.39
     1.126624          0.22
     1.125817          0.32
     1.124909          0.05
     1.124840         13.10
     1.122893          6.20
     1.121998          0.00
     1.121729          0.07
     1.120816          2.56
     1.120730          3.64
     1.117171          0.14
     1.116819          0.00
     1.113581          0.05
     1.113562          1.16
     1.113040          0.65
     1.111808          0.12
     1.111288          1.06
     1.110362          2.52
     1.110269          3.19
     1.108119          1.46
     1.107832          0.83
     1.106078          0.28
     1.104872          0.19
     1.100917          0.06
     1.100805          0.23
     1.099879          0.81
     1.099128          0.37
     1.098536          0.01
     1.098487          0.01
     1.098030          0.35
     1.095897          0.64
     1.095802          0.40
     1.095777          0.68
     1.095323          0.69
     1.095010          3.81
     1.094641          3.59
     1.094363          0.05
     1.093656          1.01
     1.092994          0.02
     1.090375          0.05
     1.088251          0.36
     1.085120          0.09
     1.084275         15.73
     1.083801          0.15
     1.083284          0.02
     1.082686          0.01
     1.082542          0.04
     1.082094          3.01
     1.080657          0.21
     1.079718          0.78
     1.079081          0.00
     1.077460          2.11
     1.076467          0.37
     1.075231          0.04
     1.074821          0.00
     1.074374          2.01
     1.072594          0.00
     1.072499          0.32
     1.071235          0.07
     1.067321          0.65
     1.063869          3.20
     1.062855          1.30
     1.062451          0.19
     1.061290          0.06
     1.060984          0.07
     1.060107          0.00
     1.059895          0.61
     1.059871          0.32
     1.059377          0.30
     1.059085          1.26
     1.058750          0.24
     1.058332          0.56
     1.057334          0.00
     1.056987          0.00
     1.056589          1.06
     1.056316          0.38
     1.054860          0.00
     1.054390          0.02
     1.053550          0.04
     1.051106          0.30
     1.050057          0.04
     1.049058          0.05
     1.048611          0.01
     1.045268          0.49
     1.043660          0.66
     1.043621          0.01
     1.043426          0.01
     1.042717          0.01
     1.042329          0.01
     1.039142          2.38
     1.038832          0.87
     1.038384          1.19
     1.037513          0.00
     1.037435          0.02
     1.036727          1.54
     1.035252          0.02
     1.030555          0.28
     1.029796          0.05
     1.029709          0.10
     1.029180          0.02
     1.026533          0.19
     1.026115          0.12
     1.026054         11.60
     1.024818          0.04
     1.024234          0.40
     1.023798          0.17
     1.023775          3.01
     1.023135          0.06
     1.021983          0.96
     1.021625          0.23
     1.021405          0.58
     1.021219          0.01
     1.020502          0.02
     1.018719          0.27
     1.017753          0.21
     1.016440          1.84
     1.015773          0.01
     1.013412          0.33
     1.013191          0.16
     1.011987          1.74
     1.011332          1.96
     1.011326          0.01
     1.010085          0.02
     1.008682          0.01
     1.007475          0.00
     1.007082          0.00
##############################################################################
###                            Comments                                    ###
##############################################################################
###   Diffraction pattern calculated by Match!. 
###   I/Ic calculated by Match!. 
##############################################################################


