##############################################################################
###               Crystal structure data exported by Match!                ###
##############################################################################
###                           Data published by:                           ###
###                                                                        ###
###               COD (Crystallography Open Database)
##############################################################################
data_9001319
_citation_journal_full    'American Mineralogist'
_citation_journal_volume  '76'
_citation_page_first  '272'
_citation_page_last   '277'
_citation_year  '1991'
_citation_title  'Crystal structure refinement of akaganeite'
loop_
_publ_author_name
  'Post J. E.'
  'Buchwald V. F.'
_chemical_formula_sum  'Cl0.675 Fe4 O8'
_chemical_name_mineral  'Akaganeite'
_symmetry_space_group_name_H-M 'I 1 2/m 1'
_space_group_IT_number 12
_space_group_crystal_system 'monoclinic'
loop_
_symmetry_equiv_pos_as_xyz
   'x, y, z'
   'x+0.5, y+0.5, z+0.5'
   '-x, y, -z'
   '-x+0.5, y+0.5, -z+0.5'
   '-x, -y, -z'
   '-x+0.5, -y+0.5, -z+0.5'
   'x, -y, z'
   'x+0.5, -y+0.5, z+0.5'
_cell_length_a       10.60000
_cell_length_b        3.03390
_cell_length_c       10.51300
_cell_angle_alpha    90.0000
_cell_angle_beta     90.2400
_cell_angle_gamma    90.0000
_cell_formula_units_Z 2
loop_
_atom_site_label
_atom_site_fract_x
_atom_site_fract_y
_atom_site_fract_z
_atom_site_occupancy
_atom_site_B_iso_or_equiv
fe      0.858   0.000   0.341    1.00000    0.499
fe      0.339   0.000   0.141    1.00000    0.499
o      0.663   0.000   0.290    1.00000    0.799
o      0.657   0.000   0.030    1.00000    0.799
o      0.293   0.000   0.357    1.00000    0.799
o      0.039   0.000   0.332    1.00000    0.799
cl      0.000   0.000   0.000    0.67500    1.999
_cell_measurement_wavelength    1.541874
_cell_measurement_radiation   'x-rays'
_exptl_crystal_density_diffrn    3.687000
loop_
_pd_peak_d_spacing
_pd_peak_intensity
     7.479999       1000.00
     7.448734        968.73
     5.299954        459.72
     5.256454        354.19
     3.739999         43.75
     3.724367         37.77
     3.353448        292.71
     3.344975        779.52
     3.331355        894.65
     3.323048        197.75
     2.916778         14.92
     2.914944         13.41
     2.649977        311.61
     2.628227        308.57
     2.555380        441.29
     2.552875        414.82
     2.551686        372.04
     2.549192        513.69
     2.493333        103.05
     2.482911         55.94
     2.370276         33.20
     2.362308         32.94
     2.358545         58.12
     2.350694         44.81
     2.301784        305.34
     2.293709        301.03
     2.110606         87.41
     2.107138         30.43
     2.106378         14.70
     2.102931        118.49
     2.079838         48.45
     2.076464         14.13
     2.064050         22.81
     2.060752         30.79
     1.961949        141.39
     1.959682        142.51
     1.953625        135.06
     1.951386        147.14
     1.870000         46.79
     1.862183         48.33
     1.817258          5.26
     1.810528          4.04
     1.810198          4.32
     1.803546          4.59
     1.766651        212.63
     1.752151        193.23
     1.737765         40.90
     1.736640         11.37
     1.733935         15.89
     1.731934         43.36
     1.729251          5.10
     1.728142         23.55
     1.676724         21.95
     1.672487          1.65
     1.665678          0.44
     1.661524         11.33
     1.651629        184.14
     1.648252        387.62
     1.644676        342.29
     1.641341        212.11
     1.516950        221.69
     1.511610         91.34
     1.510055          2.21
     1.502748          0.77
     1.501220         79.79
     1.499691          4.32
     1.497919         66.29
     1.496000          1.78
     1.489747          2.05
     1.487859         68.05
     1.486686         19.87
     1.486439         19.59
     1.486128          1.70
     1.469050          2.37
     1.464383         33.24
     1.463363         40.95
     1.458750          6.73
     1.458389         18.06
     1.457472         14.62
     1.451855        216.06
     1.449822         48.28
     1.447275         32.30
     1.445261        198.16
     1.405721          3.07
     1.404887          2.66
     1.401482          3.84
     1.397772          0.72
     1.396018          0.80
     1.392351         10.73
     1.392170         73.27
     1.387929         26.20
     1.384256         44.53
     1.382118         28.91
     1.381523         78.50
     1.380559         86.75
     1.380087         69.51
     1.379966         21.73
     1.354884          3.12
     1.345960          3.59
     1.324988          1.24
     1.316508         53.76
     1.314113          5.59
     1.313816         54.80
     1.313192          1.89
     1.310815         10.86
     1.305719          3.85
     1.303383          0.35
     1.295945         29.42
     1.294475         20.30
     1.286077          3.88
     1.283526          5.46
     1.277690          9.63
     1.276741          1.78
     1.276438          4.89
     1.275843          8.62
     1.274596         12.11
     1.274245         11.15
     1.246666         16.11
     1.241456         24.89
     1.237503         40.07
     1.235964         10.90
     1.233251          8.45
     1.231727         40.91
     1.231218          9.19
     1.227918         14.46
     1.226336         15.98
     1.225594          8.53
     1.224903          2.67
     1.223075         10.46
     1.222340          3.99
     1.221654          5.76
     1.206751         22.79
     1.206123          4.14
     1.205696          7.61
     1.202447          0.05
     1.201863          0.26
     1.198645          3.84
     1.198226          1.17
     1.197611         29.43
     1.185138          1.32
     1.181154          0.84
     1.179273          2.42
     1.178073         17.65
     1.176112         18.11
     1.175347          0.79
     1.170988          2.01
     1.169903         25.26
     1.164543          1.54
     1.162767          1.70
     1.162679          1.69
     1.161602         23.85
     1.160911          1.59
     1.160543          1.45
     1.150892         72.94
     1.148684          1.08
     1.146855         67.58
     1.145959         26.84
     1.142568         29.09
     1.139886          2.86
     1.124901          9.70
     1.123619          0.64
     1.121548          0.18
     1.120277          5.67
     1.117816          5.92
     1.114992          3.80
     1.110452          7.38
     1.107683          1.91
     1.097939         14.68
     1.090095         13.37
     1.075586         21.68
     1.073906         14.97
     1.073768          0.78
     1.072580         28.03
     1.069880         19.08
     1.068705          0.99
     1.068571         16.63
     1.068569         15.65
     1.066921         30.23
     1.066491          2.21
     1.065853         35.38
     1.065161          0.92
     1.064105         16.44
     1.062897          1.11
     1.062211         36.79
     1.061581          1.04
     1.059991         19.25
     1.058970          8.75
     1.056519          0.03
     1.055303          1.83
     1.054711          0.21
     1.053569         21.31
     1.053248         33.35
     1.053189         25.68
     1.052289         11.92
     1.051465          4.08
     1.051291         17.19
     1.049894         32.21
     1.049752         25.25
     1.046431         19.94
     1.039919         17.39
     1.038232          1.01
     1.032025          0.05
     1.030376         13.45
     1.029382          1.13
     1.025712          2.57
     1.025694         48.76
     1.024894          0.80
     1.023994         18.03
     1.022516         29.40
     1.021272          1.25
     1.020833         47.63
     1.014503         13.80
     1.011688          4.80
     1.009520          5.15
     1.006747         22.53
     1.006729          0.33
     1.006653          0.30
##############################################################################
###                            Comments                                    ###
##############################################################################
###   Diffraction pattern calculated by Match!. 
###   I/Ic calculated by Match!. 
##############################################################################


