##############################################################################
###               Crystal structure data exported by Match!                ###
##############################################################################
###                           Data published by:                           ###
###                                                                        ###
###               COD (Crystallography Open Database)
##############################################################################
data_4002440
_citation_journal_full    'Chemistry of Materials (1,1989-)'
_citation_journal_volume  '18'
_citation_page_first  '1464'
_citation_page_last   '1469'
_citation_year  '2006'
_citation_title  'Magic silica clusters as nanoscale building units forsuper-(tris)tetrahedral materials'
loop_
_publ_author_name
  'Wojdel J.C.'
  'Zwijnenburg M.A.'
  'Bromley S.T.'
_chemical_formula_sum  'O2 Si'
_chemical_name_common  'Silica'
_symmetry_space_group_name_H-M 'P m m m'
_space_group_IT_number 47
_space_group_crystal_system 'orthorhombic'
loop_
_symmetry_equiv_pos_as_xyz
   'x, y, z'
   '-x, -y, z'
   'x, -y, -z'
   '-x, y, -z'
   '-x, -y, -z'
   'x, y, -z'
   '-x, y, z'
   'x, -y, z'
_cell_length_a       20.57000
_cell_length_b        9.73900
_cell_length_c       20.46000
_cell_angle_alpha    90.0000
_cell_angle_beta     90.0000
_cell_angle_gamma    90.0000
_cell_formula_units_Z 64
loop_
_atom_site_label
_atom_site_fract_x
_atom_site_fract_y
_atom_site_fract_z
_atom_site_occupancy
_atom_site_B_iso_or_equiv
o      0.928   0.500   0.342    1.00000    1.000
o      0.603   0.640   0.289    1.00000    1.000
o      0.930   0.236   0.363    1.00000    1.000
si      0.606   0.647   0.210    1.00000    1.000
o      0.919   0.360   0.234    1.00000    1.000
o      0.678   0.500   0.500    1.00000    1.000
o      0.713   0.640   0.395    1.00000    1.000
o      0.568   0.780   0.180    1.00000    1.000
o      0.840   0.500   0.000    1.00000    1.000
o      0.821   0.780   0.431    1.00000    1.000
o      0.658   0.500   0.073    1.00000    1.000
o      0.574   0.500   0.185    1.00000    1.000
si      0.792   0.647   0.393    1.00000    1.000
si      0.687   0.646   0.100    1.00000    1.000
o      0.000   0.500   0.157    1.00000    1.000
o      0.822   0.656   0.318    1.00000    1.000
o      0.500   0.500   0.329    1.00000    1.000
o      0.680   0.655   0.180    1.00000    1.000
o      0.872   0.500   0.128    1.00000    1.000
o      0.897   0.000   0.414    1.00000    1.000
si      0.902   0.354   0.312    1.00000    1.000
o      0.637   0.764   0.071    1.00000    1.000
o      0.586   0.000   0.104    1.00000    1.000
si      0.577   0.500   0.326    1.00000    1.000
o      0.603   0.500   0.400    1.00000    1.000
si      0.926   0.500   0.187    1.00000    1.000
si      0.677   0.500   0.422    1.00000    1.000
o      0.765   0.640   0.083    1.00000    1.000
si      0.896   0.837   0.427    1.00000    1.000
si      0.812   0.500   0.075    1.00000    1.000
o      0.500   0.807   0.073    1.00000    1.000
o      0.928   0.807   0.500    1.00000    1.000
o      0.816   0.500   0.425    1.00000    1.000
si      0.572   0.837   0.105    1.00000    1.000
_cell_measurement_wavelength    1.541874
_cell_measurement_radiation   'x-rays'
_exptl_crystal_density_diffrn    1.557000
loop_
_pd_peak_d_spacing
_pd_peak_intensity
    20.570000         19.74
    20.459999         22.20
    14.506139       1000.00
    10.285000          1.97
    10.230000          3.64
     9.739000        784.37
     9.189281          5.68
     9.159765          6.06
     8.802278          0.04
     8.793602          0.08
     8.085739        148.12
     7.253069        110.60
     7.071661         75.24
     7.053707         75.77
     6.856667          0.45
     6.820000          0.48
     6.683696          3.99
     6.672313          4.31
     6.501301         33.25
     6.473473         33.98
     5.817096        128.57
     5.695652          3.48
     5.683918          3.32
     5.606533         10.38
     5.586434         10.15
     5.407196          0.01
     5.391154          0.08
     5.142500         85.04
     5.115000         89.31
     4.987376          2.41
     4.963836          2.48
     4.916580          0.42
     4.909026          0.65
     4.869500          1.34
     4.835380         21.57
     4.738536          0.09
     4.737181          0.08
     4.616346        100.68
     4.594641         11.63
     4.579883         11.50
     4.547472          5.33
     4.528423          6.06
     4.439146          3.05
     4.422522          2.78
     4.401139          0.00
     4.396801          0.03
     4.330947         27.62
     4.302717          1.13
     4.299676          1.26
     4.155411         30.40
     4.144484         30.74
     4.114000          0.00
     4.106039          0.44
     4.099879          0.54
     4.092000          0.00
     4.042870          7.75
     4.033273          8.02
     4.013359          7.72
     3.970161          0.17
     3.963005          0.13
     3.897463         21.26
     3.891443         22.01
     3.816916          1.45
     3.802124          1.29
     3.789745          0.82
     3.783519          0.36
     3.778698          0.38
     3.772527          0.79
     3.726360         11.56
     3.710638         12.66
     3.701207          0.36
     3.697981          0.42
     3.626535          1.61
     3.553732          1.06
     3.541784          1.12
     3.535831          0.01
     3.526854          0.05
     3.522703          0.02
     3.513825          0.00
     3.484185          0.06
     3.476129          0.03
     3.431130          0.47
     3.428333         15.45
     3.410000         15.34
     3.398557          8.40
     3.381195          2.25
     3.364088          2.02
     3.341848          1.29
     3.336156          1.49
     3.312656          3.34
     3.305271          2.97
     3.250651         21.55
     3.246333          0.09
     3.236737         21.27
     3.233818          0.95
     3.218418          0.92
     3.206645          0.08
     3.206225          0.08
     3.205757          0.01
     3.201986          0.00
     3.194166          0.93
     3.179733          0.97
     3.167973          0.12
     3.142590          0.12
     3.139037          0.00
     3.136282          0.01
     3.132751          0.17
     3.106163          0.31
     3.097040          0.14
     3.095782         23.97
     3.094271         25.17
     3.083428         35.11
     3.071545         35.15
     3.063094          0.01
     3.060941          0.79
     3.059846          0.76
     3.053255          0.02
     3.045033          0.65
     3.041801          0.66
     3.004042          0.50
     2.996815          0.53
     2.963078          0.01
     2.938571          1.56
     2.934093          4.58
     2.931201          4.63
     2.922857          1.58
     2.921978          3.48
     2.913434          3.39
     2.908724          4.05
     2.908548          2.06
     2.904380         12.84
     2.901886         12.36
     2.901228          0.04
     2.893790          4.82
     2.854156          1.67
     2.849428          1.73
     2.847826          0.01
     2.841959          0.06
     2.824358          0.56
     2.820381          0.05
     2.818953          0.10
     2.813296          2.22
     2.811529          0.62
     2.803266          0.82
     2.799498          2.49
     2.793217          0.89
     2.787072          1.05
     2.780476          8.69
     2.777319          0.13
     2.773926          0.52
     2.767815          0.14
     2.745115          0.73
     2.740908          1.07
     2.733363          6.32
     2.728174          5.52
     2.720736          1.26
     2.716895          1.30
     2.712592          0.16
     2.703598          1.78
     2.701221          0.07
     2.698717          4.56
     2.695577          1.99
     2.695246          7.42
     2.688756          4.55
     2.677604          0.33
     2.675406          0.33
     2.651319         22.49
     2.648474         23.80
     2.627919          0.25
     2.625379          0.31
     2.600713          0.01
     2.592784          0.15
     2.591795          0.01
     2.586808          0.21
     2.571250         13.78
     2.557500         11.48
     2.551183          0.48
     2.548461          0.01
     2.548016          0.78
     2.546566          0.29
     2.545094          0.34
     2.543206          0.06
     2.541089          1.01
     2.537959          0.32
     2.537175          1.36
     2.534889          1.75
     2.528919          7.14
     2.523988          6.65
     2.515950          0.87
     2.506066          0.77
     2.497141          0.58
     2.493688          0.01
     2.492393          1.54
     2.487672          0.41
     2.486065          6.06
     2.481918          0.00
     2.473630          5.15
     2.472884          0.05
     2.468848          0.05
     2.467913          1.71
     2.465045          0.42
     2.458772          0.31
     2.458290          0.20
     2.455936          1.58
     2.454513          0.19
     2.443147          0.71
     2.434829          0.60
     2.434750          0.20
     2.418792          9.12
     2.417872          0.00
     2.417690          1.09
     2.415754          0.25
     2.405938          0.87
     2.405049          0.45
     2.401163          1.68
     2.396238          0.89
     2.387237          0.00
     2.386871          0.50
     2.384469          0.01
     2.382724          0.53
     2.369268          3.79
     2.368590          4.16
     2.360452          2.26
     2.357220          0.02
     2.353778          2.64
     2.353540          0.00
     2.353042          0.00
     2.351236          0.01
     2.346468          6.38
     2.341730          0.00
     2.336025          0.00
     2.335719          0.21
     2.326841          0.17
     2.318262          0.10
     2.314461          0.08
     2.312640          0.01
     2.310908          0.02
     2.308173          0.74
     2.297320          4.57
     2.297029          0.15
     2.294393          0.16
     2.293009          0.16
     2.292104          0.24
     2.289941          4.84
     2.285556          0.46
     2.281023          1.80
     2.280101          2.46
     2.279664          1.95
     2.278893          2.45
     2.273736          0.03
     2.273333          0.71
     2.271427          0.28
     2.264211          0.03
     2.259824          0.49
     2.259576          0.04
     2.257622          0.07
     2.252800          0.09
     2.250618          0.47
     2.238776          0.27
     2.238062          0.22
     2.235954          0.53
     2.230564          1.19
     2.229149          0.70
     2.227899          2.17
     2.226053          0.85
     2.225103          0.22
     2.224228          0.81
     2.224104          1.93
     2.219756          1.34
     2.219573          0.36
     2.213820          0.10
     2.212060          0.59
     2.211261          0.28
     2.201109          0.34
     2.200570          0.21
     2.198401          0.28
     2.187951          0.43
     2.185952          0.40
     2.178584          0.66
     2.177121          0.03
     2.174629          2.27
     2.174265          0.53
     2.172158          0.59
     2.172012          0.01
     2.170087          1.74
     2.168396          1.97
     2.167100          1.08
     2.166338          0.12
     2.165474          0.43
     2.164251          0.58
     2.163236          4.01
     2.160147          0.16
     2.157824          0.73
     2.157017          0.51
     2.151359          8.17
     2.150019          0.58
     2.149838          8.57
     2.143245          0.45
     2.140825          4.87
     2.140241          0.38
     2.138329          4.83
     2.130802          1.46
     2.125277          1.55
     2.124680          1.60
     2.119930          1.57
     2.115363          0.06
     2.106733          0.02
     2.095304          0.62
     2.094250          0.02
     2.093431          0.03
     2.092380          0.69
     2.086712          2.79
     2.084402          0.51
     2.081638          0.38
     2.079228          2.67
     2.077705          1.03
     2.075273          0.00
     2.072306          3.80
     2.072242          1.01
     2.070733          0.02
     2.068990          0.05
     2.059910          0.05
     2.058492          0.68
     2.057000          9.34
     2.053020          0.16
     2.052690          0.60
     2.050380          0.64
     2.049940          0.09
     2.049659          0.64
     2.046682          3.57
     2.046000         10.07
     2.042557          0.00
     2.041363          0.01
     2.040402          0.31
     2.035954          3.02
     2.033403          0.32
     2.027931          0.13
     2.026927          1.36
     2.024539          0.00
     2.021435          5.14
     2.019798          0.17
     2.016636          0.56
     2.015604          0.96
     2.012598          3.20
     2.008960          0.98
     2.008869          0.35
     2.006680          0.80
     2.005984          0.53
     2.005894          0.03
     2.004353          0.46
     2.002931          0.21
     2.002908          0.03
     2.002291          3.17
     2.001272          0.03
     2.000976          0.50
     1.999447          0.04
     1.995400          0.37
     1.992872          0.11
     1.989755          0.25
     1.987520          0.05
     1.985081          1.46
     1.983630          0.04
     1.981503          1.37
     1.979887          0.02
     1.977584          0.00
     1.975803          0.00
     1.974745          2.47
     1.972806          0.00
     1.972372          0.00
     1.971699          0.06
     1.969372          0.24
     1.965393          3.18
     1.960576          0.19
     1.954791          2.01
     1.949484          1.72
     1.948731          1.21
     1.947800          0.00
     1.945721          1.42
     1.939126          0.01
     1.939032          5.10
     1.938929          0.22
     1.938094          0.18
     1.932954          0.26
     1.930555          0.29
     1.930475          6.65
     1.930302          0.29
     1.929182          0.34
     1.927913          0.17
     1.923024          0.00
     1.922017          0.34
     1.920853          0.01
     1.918022          0.07
     1.913783          0.24
     1.913426          0.20
     1.912205          0.08
     1.908458          0.67
     1.906816          0.14
     1.905984          0.05
     1.905465          0.17
     1.905201          0.19
     1.903607          0.02
     1.901062          0.79
     1.898551          0.52
     1.894872          0.00
     1.894639          0.62
     1.893707          0.08
     1.892411          0.07
     1.891760          0.80
     1.889349          0.89
     1.886798          0.08
     1.886263          0.02
     1.881148          0.80
     1.878382          0.13
     1.875260          0.49
     1.874831          0.02
     1.873666          0.13
     1.872912          0.14
     1.872838          0.17
     1.871240          0.55
     1.870730          0.04
     1.870000          0.00
     1.868844          0.19
     1.867009          0.34
     1.865859          0.74
     1.865847          0.20
     1.865197          0.78
     1.865022          0.96
     1.863472          0.12
     1.863180          0.12
     1.863042          0.25
     1.862238          2.10
     1.862145          0.14
     1.861097          0.04
     1.860000          0.01
     1.859773          0.09
     1.855319          0.03
     1.854561          0.04
     1.852442          2.00
     1.850603          1.71
     1.848991          1.75
     1.846393          0.05
     1.844117          1.00
     1.843009          0.14
     1.842610          0.13
     1.841918          0.02
     1.840532          1.14
     1.839519          0.01
     1.838419          0.52
     1.837856          0.58
     1.836453          0.44
     1.835891          0.00
     1.834867          0.00
     1.832354          0.36
     1.831953          0.48
     1.830310          0.00
     1.829100          0.34
     1.826979          0.39
     1.825714          0.02
     1.821517          0.00
     1.820287          0.00
     1.819815          0.37
     1.818699          0.00
     1.814341          0.21
     1.813267          0.01
     1.813201          0.20
     1.808152          0.01
     1.807767          0.03
     1.807558          0.25
     1.806723          0.42
     1.805980          0.01
     1.805221          0.01
     1.804764          0.01
     1.803435          1.09
     1.802399          1.19
     1.800454          1.28
     1.800378          0.01
     1.798819          0.28
     1.798079          1.33
     1.797051          1.73
     1.795124          0.86
     1.794659          0.62
     1.793555          0.60
     1.793311          0.02
     1.792430          0.04
     1.786018          0.42
     1.785220          0.38
     1.782633          2.54
     1.776866          0.30
     1.773288          0.52
     1.770892          0.27
     1.770453          0.05
     1.768861          0.07
     1.768195          0.04
     1.767915          0.50
     1.765697          0.07
     1.765385          0.32
     1.763427          0.59
##############################################################################
###                            Comments                                    ###
##############################################################################
###   Diffraction pattern calculated by Match!. 
###   I/Ic calculated by Match!. 
###   Space group has been derived from given symmetry operations. 
##############################################################################


