##############################################################################
###               Crystal structure data exported by Match!                ###
##############################################################################
###                           Data published by:                           ###
###                                                                        ###
###               COD (Crystallography Open Database)
##############################################################################
data_1000027
_citation_journal_full    'Acta Crystallographica (1,1948-23,1967)'
_citation_journal_volume  '11'
_citation_page_first  '686'
_citation_page_last   '688'
_citation_year  '1958'
_citation_title  'The Crystal Structure of the Anhydrous Magnesium Sulfate'
loop_
_publ_author_name
  'Rentzeperis P J'
  'Soldatos C T'
_chemical_formula_sum  'Mg O4 S'
_chemical_name_common  'Magnesium sulfate'
_symmetry_space_group_name_H-M 'C m c m'
_space_group_IT_number 63
_space_group_crystal_system 'orthorhombic'
loop_
_symmetry_equiv_pos_as_xyz
   'x, y, z'
   'x+0.5, y+0.5, z'
   '-x, -y, z+0.5'
   '-x+0.5, -y+0.5, z+0.5'
   'x, -y, -z'
   'x+0.5, -y+0.5, -z'
   '-x, y, -z+0.5'
   '-x+0.5, y+0.5, -z+0.5'
   '-x, -y, -z'
   '-x+0.5, -y+0.5, -z'
   'x, y, -z+0.5'
   'x+0.5, y+0.5, -z+0.5'
   '-x, y, z'
   '-x+0.5, y+0.5, z'
   'x, -y, z+0.5'
   'x+0.5, -y+0.5, z+0.5'
_cell_length_a        5.18200
_cell_length_b        7.89300
_cell_length_c        6.50600
_cell_angle_alpha    90.0000
_cell_angle_beta     90.0000
_cell_angle_gamma    90.0000
_cell_formula_units_Z 4
loop_
_atom_site_label
_atom_site_fract_x
_atom_site_fract_y
_atom_site_fract_z
_atom_site_occupancy
_atom_site_B_iso_or_equiv
mg      0.000   0.000   0.000    1.00000    1.000
s      0.000   0.370   0.250    1.00000    1.000
o      0.000   0.250   0.060    1.00000    1.000
o      0.250   0.470   0.250    1.00000    1.000
_cell_measurement_wavelength    1.541874
_cell_measurement_radiation   'x-rays'
_exptl_crystal_density_diffrn    3.004000
loop_
_pd_peak_d_spacing
_pd_peak_intensity
     4.331842          2.20
     3.946500         97.82
     3.605714       1000.00
     3.374240        635.42
     3.253000         41.01
     2.601212        632.49
     2.591000        230.63
     2.510171         90.45
     2.345950        253.83
     2.206865         12.39
     2.165921        106.12
     2.055033         52.81
     2.026691        137.29
     1.973250         62.05
     1.939223          2.03
     1.902767          0.23
     1.900608         88.32
     1.888309         13.10
     1.802857         91.77
     1.687399          0.61
     1.687120        102.12
     1.633357         61.25
     1.626500        103.48
     1.592469        102.47
     1.569833          0.11
     1.532507         19.66
     1.526037         21.64
     1.522701          0.78
     1.510086         39.98
     1.503792         44.73
     1.497872         88.41
     1.470982          8.99
     1.459505          3.61
     1.443947         42.63
     1.413814        283.34
     1.409647          3.43
     1.377564         15.42
     1.369699          1.34
     1.336660         62.31
     1.331756          0.00
     1.319771          0.02
     1.315500          1.68
     1.300606          0.05
     1.295500         63.22
     1.289406          0.83
     1.271635          8.95
     1.255085          1.62
     1.246193         40.99
     1.239249         42.52
     1.235763         15.32
     1.230878          4.13
     1.219554          0.68
     1.209423         28.18
     1.203567          1.54
     1.201905         29.26
     1.172975          0.06
     1.171047          0.11
     1.165279         14.05
     1.154364         39.78
     1.151222          2.06
     1.147026          4.27
     1.137887          0.03
     1.129542          6.97
     1.124747          0.77
     1.115395          7.20
     1.106661         23.26
     1.103432          1.57
     1.101790          0.06
     1.097019          0.33
     1.086322          7.72
     1.086283          0.76
     1.084333          5.96
     1.082960          5.58
     1.079823         27.68
     1.070474         18.51
     1.068262          1.42
     1.051879         22.70
     1.045585          1.97
     1.043557         27.47
     1.031730         27.40
     1.030417         20.24
     1.027579          0.01
     1.027517         31.51
     1.026481         21.48
     1.022832          7.07
     1.014997          9.91
     1.013346         30.71
##############################################################################
###                            Comments                                    ###
##############################################################################
###   Diffraction pattern calculated by Match!. 
###   I/Ic calculated by Match!. 
###   Space group has been derived from given symmetry operations. 
##############################################################################


