##############################################################################
###               Crystal structure data exported by Match!                ###
##############################################################################
###                           Data published by:                           ###
###                                                                        ###
###               COD (Crystallography Open Database)
##############################################################################
data_1524663
_citation_journal_full    'Neues Jahrbuch fuer Mineralogie. Abhandlungen (Band-Nr) (1950-)'
_citation_journal_volume  '134'
_citation_page_first  '147'
_citation_page_last   '156'
_citation_year  '1979'
_citation_title  'Ladungsbilanzen an den verfeinerten Kristallstrukturen von Libethenit, Adamin und Co2 ((O H)/As O4) und ihre Wasserstoffbrueckenbindungen'
loop_
_publ_author_name
  'Keller P.'
  'Hess H.'
  'Zettler F.'
_chemical_formula_sum  'Cu2 H O5 P'
_chemical_name_common  'Cu2 (P O4) (O H)'
_symmetry_space_group_name_H-M 'P n n m'
_space_group_IT_number 58
_space_group_crystal_system 'orthorhombic'
loop_
_symmetry_equiv_pos_as_xyz
   'x, y, z'
   '-x, -y, z'
   'x+0.5, -y+0.5, -z+0.5'
   '-x+0.5, y+0.5, -z+0.5'
   '-x, -y, -z'
   'x, y, -z'
   '-x+0.5, y+0.5, z+0.5'
   'x+0.5, -y+0.5, z+0.5'
_cell_length_a        8.07600
_cell_length_b        8.40700
_cell_length_c        5.89800
_cell_angle_alpha    90.0000
_cell_angle_beta     90.0000
_cell_angle_gamma    90.0000
_cell_formula_units_Z 4
loop_
_atom_site_label
_atom_site_fract_x
_atom_site_fract_y
_atom_site_fract_z
_atom_site_occupancy
_atom_site_B_iso_or_equiv
p      0.233   0.248   0.500    1.00000    1.000
o      0.123   0.103   0.000    1.00000    1.000
o      0.133   0.088   0.500    1.00000    1.000
o      0.341   0.261   0.289    1.00000    1.000
cu      0.362   0.125   0.000    1.00000    1.000
cu      0.000   0.000   0.251    1.00000    1.000
o      0.102   0.384   0.500    1.00000    1.000
_cell_measurement_wavelength    1.541874
_cell_measurement_radiation   'x-rays'
_exptl_crystal_density_diffrn    3.947000
loop_
_pd_peak_d_spacing
_pd_peak_intensity
     5.824096        974.08
     4.828292       1000.00
     4.763030        852.03
     4.203500         23.14
     4.144140         31.49
     4.038000         18.55
     3.728663        548.08
     3.639904        231.44
     3.151672          4.46
     3.097522          1.39
     2.949000        101.36
     2.912048        918.09
     2.647477        534.06
     2.630955        916.91
     2.611126        284.25
     2.563770        423.54
     2.531154        191.58
     2.448969        201.25
     2.415305        344.67
     2.414146        132.21
     2.381515        352.47
     2.351241        147.17
     2.313014        337.83
     2.302242         10.44
     2.291353         11.17
     2.266964         50.83
     2.144645          1.11
     2.116040          0.05
     2.101750          6.33
     2.072070        132.06
     2.033999          8.40
     2.019000         12.30
     1.970052         44.96
     1.963180         19.30
     1.941365         25.32
     1.934823         63.38
     1.922867        110.82
     1.914351         65.57
     1.910213         89.94
     1.864332         22.48
     1.862734         12.18
     1.862703        107.60
     1.844039          4.78
     1.819952         38.39
     1.814720         46.16
     1.797291         47.28
     1.777638          0.01
     1.739067          3.60
     1.739042         31.75
     1.729804          0.07
     1.711548        352.70
     1.674359          0.68
     1.665963        192.67
     1.656641          1.57
     1.646102        101.84
     1.638122          1.55
     1.634185          2.71
     1.629421         55.09
     1.621538        261.73
     1.616977         38.94
     1.609431         29.36
     1.594920         67.63
     1.587677         83.67
     1.586190         64.82
     1.585509         97.44
     1.578393         35.78
     1.578374         60.58
     1.575836        117.52
     1.560100         42.02
     1.557840          3.98
     1.552212          6.50
     1.548761        258.05
     1.531763         65.59
     1.507724         46.99
     1.501098          0.19
     1.495054          0.25
     1.485264          7.68
     1.474500        173.11
     1.460750          3.26
     1.456024        200.35
     1.444342          1.11
     1.437342         30.51
     1.432020         30.73
     1.429402         24.74
     1.426086          6.32
     1.413600         19.24
     1.413587          0.06
     1.401167          0.53
     1.399394         11.74
     1.396937         33.62
     1.391381          6.55
     1.389174         29.48
     1.386143          0.37
     1.385048          3.12
     1.381380          2.49
     1.380543         18.78
     1.373560         52.27
     1.371180         38.28
     1.366626         10.07
     1.361593          4.71
     1.352796          0.27
     1.346000         21.25
     1.344210          0.30
     1.342445         66.02
     1.335551          8.67
     1.329073         10.91
     1.323738         51.98
     1.315477         94.15
     1.305563         37.75
     1.296562          1.26
     1.292033          0.92
     1.291607         17.92
     1.288184         78.57
     1.283850         62.47
     1.281885         18.83
     1.280697          1.72
     1.278182         71.69
     1.277815         17.11
     1.266846          8.91
     1.265577         41.13
     1.264270         57.17
     1.262115         21.74
     1.262105         20.57
     1.258507         21.32
     1.252640         18.14
     1.251532         16.11
     1.250318         13.21
     1.248023          0.74
     1.242888          4.10
     1.241668          0.52
     1.236042          9.48
     1.234494         49.61
     1.224484         24.92
     1.218272          0.45
     1.216177          0.73
     1.213301          0.52
     1.211699          8.13
     1.207652         12.70
     1.207073          0.68
     1.196405          3.26
     1.193812          0.89
     1.190757          0.35
     1.188416          2.06
     1.187936          1.12
     1.183434         13.06
     1.178990          1.42
     1.176849          9.24
     1.175620          2.68
     1.174704          0.42
     1.174214          5.41
     1.170076          0.22
     1.168157          8.38
     1.167215          5.63
     1.164819          8.74
     1.164549          0.04
     1.156507          8.16
     1.156125          1.72
     1.154369          0.53
     1.151162          2.32
     1.151121         15.51
     1.145676          7.14
     1.145322          5.04
     1.143002          3.81
     1.142747          3.41
     1.140074          0.00
     1.133482          3.76
     1.132256          3.86
     1.129843          0.38
     1.129811          1.48
     1.129804          3.31
     1.124662          0.75
     1.122145          0.17
     1.122124          0.98
     1.122046          0.00
     1.113113          0.02
     1.112570          0.72
     1.101894         46.74
     1.101417          0.42
     1.101075          0.72
     1.098304         37.57
     1.098036         13.07
     1.096798         35.43
     1.095924          2.23
     1.093307         13.85
     1.093288          3.65
     1.087207          8.02
     1.083370         27.30
     1.080426          5.10
     1.079958         27.00
     1.079737         13.52
     1.078311          9.22
     1.077487         25.61
     1.073793          9.74
     1.073094         10.62
     1.072356          0.12
     1.072323         28.50
     1.071613          8.21
     1.069046          6.15
     1.066840         21.54
     1.065750         37.31
     1.058416         12.05
     1.058020         70.54
     1.054179         21.73
     1.050875         36.69
     1.050781          0.39
     1.050557          3.07
     1.049821          0.08
     1.049804          2.06
     1.046414          0.51
     1.042090          0.07
     1.041774          0.47
     1.040952          0.71
     1.036035        112.18
     1.034492          0.26
     1.032507          0.65
     1.032187          0.87
     1.028000          2.28
     1.026195          7.73
     1.025084          4.01
     1.024895          7.92
     1.020417         10.71
     1.016999          0.65
     1.016740          0.47
     1.016735          8.58
     1.015710          0.01
     1.015034          7.03
     1.011359          0.00
     1.011114          9.92
     1.009500         22.36
     1.008097          0.41
     1.007771          9.58
##############################################################################
###                            Comments                                    ###
##############################################################################
###   Diffraction pattern calculated by Match!. 
###   I/Ic calculated by Match!. 
##############################################################################


