##############################################################################
###               Crystal structure data exported by Match!                ###
##############################################################################
###                           Data published by:                           ###
###                                                                        ###
###               COD (Crystallography Open Database)
##############################################################################
data_9006304
_citation_journal_full    'Physics and Chemistry of Minerals'
_citation_journal_volume  '21'
_citation_page_first  '269'
_citation_page_last   '284'
_citation_year  '1994'
_citation_title  'Framework silica structures generated using simulated annealingwith a potential energy function based on an H6Si2O7 moleculeSample: 21'
loop_
_publ_author_name
  'Boisen M. B.'
  'Gibbs G. V.'
  'Bukowinski M. S. T.'
_chemical_formula_sum  'O2 Si'
_chemical_name_common  'Silica'
_symmetry_space_group_name_H-M 'P 1'
_space_group_IT_number 1
_space_group_crystal_system 'triclinic'
loop_
_symmetry_equiv_pos_as_xyz
   'x, y, z'
_cell_length_a        4.72090
_cell_length_b        4.56220
_cell_length_c        6.03940
_cell_angle_alpha    90.9053
_cell_angle_beta     93.3589
_cell_angle_gamma   105.9589
loop_
_atom_site_label
_atom_site_fract_x
_atom_site_fract_y
_atom_site_fract_z
_atom_site_occupancy
_atom_site_B_iso_or_equiv
si      0.924   0.887   0.098    1.00000    1.000
si      0.046   0.677   0.545    1.00000    1.000
si      0.290   0.490   0.164    1.00000    1.000
si      0.565   0.159   0.814    1.00000    1.000
o      0.832   0.746   0.338    1.00000    1.000
o      0.298   0.543   0.433    1.00000    1.000
o      0.241   0.007   0.670    1.00000    1.000
o      0.993   0.239   0.137    1.00000    1.000
o      0.693   0.868   0.885    1.00000    1.000
o      0.520   0.332   0.047    1.00000    1.000
o      0.213   0.778   0.046    1.00000    1.000
o      0.826   0.410   0.689    1.00000    1.000
_cell_measurement_wavelength    1.541874
_cell_measurement_radiation   'x-rays'
_exptl_crystal_density_diffrn    3.198000
loop_
_pd_peak_d_spacing
_pd_peak_intensity
     6.025692        964.42
     4.529216        302.63
     4.383944        235.70
     3.740007        471.45
     3.702671         99.72
     3.602433        738.24
     3.511766        566.63
     3.490229        649.30
     3.191102        999.47
     3.119483       1000.00
     3.012846        379.71
     2.788356        781.12
     2.591983        148.50
     2.587875        449.85
     2.522459         64.14
     2.473290        198.26
     2.445349        261.61
     2.436068        450.41
     2.366604         14.69
     2.308372         22.10
     2.286082         63.99
     2.264608          9.39
     2.229404        154.47
     2.191972         22.00
     2.172844        427.46
     2.167076         62.28
     2.112154        299.92
     2.103683        109.38
     2.091966         23.27
     2.089804        103.97
     2.082271        173.07
     2.075569        147.33
     2.038258        130.83
     2.008564        136.58
     1.986486         14.34
     1.882348          7.09
     1.870004          0.40
     1.865481         28.34
     1.851336        104.59
     1.849464         34.13
     1.817579         72.63
     1.803469          3.16
     1.801216        115.56
     1.793480        113.67
     1.793127          6.52
     1.790757         63.20
     1.788702         80.00
     1.784656         35.38
     1.782468         75.76
     1.779861         56.36
     1.772955         14.08
     1.757187         25.12
     1.755883         81.61
     1.746996         98.14
     1.745115          5.42
     1.740083         57.76
     1.709080         65.51
     1.690487         59.79
     1.679433         21.90
     1.604076         77.75
     1.595551          4.03
     1.584242        198.06
     1.575134         17.86
     1.567013         17.09
     1.559742          0.91
     1.554027         78.37
     1.546751        130.76
     1.537715         14.21
     1.518785         18.26
     1.512567         21.75
     1.509739         64.85
     1.506423         40.88
     1.506020         35.69
     1.503493         13.66
     1.496274         19.20
     1.493435         10.70
     1.491077         66.69
     1.487611         72.49
     1.477142         12.53
     1.473697         26.41
     1.468346         37.65
     1.461315         14.59
     1.458308         29.80
     1.456942         16.24
     1.456099          3.14
     1.443642         35.51
     1.442380         11.06
     1.439443         32.03
     1.431089         58.15
     1.423267          0.75
     1.419555         35.20
     1.417042          3.90
     1.410323         18.97
     1.409458         31.28
     1.407918         33.00
     1.402206          8.56
     1.394499          1.46
     1.394178         92.17
     1.391141        114.37
     1.386604          1.38
     1.384434         51.57
     1.383131        114.64
     1.379042         44.44
     1.378881         31.73
     1.377005         16.29
     1.372400          7.52
     1.363131          0.38
     1.360799         28.30
     1.359368         11.96
     1.349392          2.47
     1.344351         40.56
     1.340328         11.07
     1.332326         15.91
     1.323057         30.28
     1.319590         12.12
     1.315699         26.82
     1.307542         46.54
     1.305313         23.42
     1.301977         15.04
     1.297984         14.43
     1.295992         14.60
     1.293938         37.07
     1.292569         36.58
     1.290401          5.76
     1.288503        139.83
     1.287037         37.99
     1.281730         55.54
     1.279847         24.47
     1.274382        106.66
     1.271305         44.13
     1.270523         26.75
     1.261230         76.13
     1.249569         36.71
     1.249109         24.25
     1.247268         19.16
     1.246669        112.47
     1.239752          4.02
     1.236645         53.69
     1.234224         64.41
     1.230618          0.88
     1.222674         22.11
     1.218851         37.66
     1.218034         66.36
     1.215213          4.41
     1.207345         33.67
     1.205138          2.44
     1.204163         16.17
     1.203211         38.48
     1.203119          9.50
     1.200811         32.79
     1.199593          5.84
     1.195552          5.94
     1.184037         51.28
     1.183544          4.27
     1.183302         21.87
     1.179936          9.45
     1.179774          4.67
     1.177989         25.72
     1.172033          0.02
     1.170589          0.05
     1.169205          1.84
     1.166095          9.68
     1.164062          0.82
     1.163410         24.96
     1.154644          0.69
     1.154509         21.16
     1.154186         12.94
     1.152437          4.52
     1.152282         33.82
     1.150284          2.76
     1.146121         11.79
     1.143434         60.33
     1.143041         19.55
     1.139678         37.76
     1.138555          4.86
     1.137482         16.78
     1.133175         11.56
     1.132304         19.68
     1.132049          0.26
     1.131855         11.51
     1.126290         12.26
     1.123801         12.61
     1.123543          0.61
     1.123282         15.82
     1.119814         26.73
     1.117751         10.56
     1.116142          7.38
     1.114702         19.58
     1.113703         40.52
     1.113122          4.63
     1.110167         29.92
     1.108452          0.90
     1.103090         17.72
     1.102967          0.27
     1.099835          7.30
     1.097437          2.06
     1.096416          1.78
     1.095986          5.77
     1.095793          0.29
     1.093990          8.79
     1.090630         12.61
     1.088185          0.21
     1.086422          0.32
     1.084662          3.34
     1.083538         10.54
     1.082283          1.42
     1.077790          2.13
     1.076348          4.90
     1.075735          3.68
     1.072404         28.43
     1.072038         17.20
     1.071194          9.64
     1.070343          1.51
     1.069045          4.26
     1.066764          8.50
     1.064160          2.89
     1.063701         11.41
     1.062871         16.04
     1.062866         31.63
     1.062706          0.31
     1.060863         13.47
     1.059635         24.60
     1.059453          4.29
     1.056792          1.54
     1.056077          4.61
     1.051842          1.98
     1.050489          3.81
     1.045983          5.06
     1.045884          8.91
     1.045263          7.10
     1.044902          7.18
     1.043427          1.56
     1.041535         14.49
     1.041136          3.23
     1.039828         12.57
     1.037784          2.30
     1.037660          3.60
     1.036904          0.15
     1.036575         19.73
     1.036116          1.55
     1.033092          1.23
     1.032976          0.43
     1.031886          9.15
     1.029588         15.00
     1.028644          0.60
     1.027438          9.50
     1.026419         21.00
     1.024937          1.36
     1.024167          4.29
     1.021956          4.03
     1.021729          5.54
     1.020414          9.41
     1.019129          3.41
     1.019078         11.31
     1.015850          6.17
     1.015207          6.36
     1.014936          2.74
     1.012859          3.35
##############################################################################
###                            Comments                                    ###
##############################################################################
###   Diffraction pattern calculated by Match!. 
###   I/Ic calculated by Match!. 
###   Space group has been derived from given symmetry operations. 
##############################################################################


