##############################################################################
###               Crystal structure data exported by Match!                ###
##############################################################################
###                           Data published by:                           ###
###                                                                        ###
###               COD (Crystallography Open Database)
##############################################################################
data_9007513
_citation_journal_full    'Acta Crystallographica, Section B'
_citation_journal_volume  '26'
_citation_page_first  '649'
_citation_page_last   '652'
_citation_year  '1970'
_citation_title  'Unit cell and crystal structure of nordstrandite, Al(OH)3Locality: synthetic'
loop_
_publ_author_name
  'Bosmans H. J.'
_chemical_formula_sum  'Al H3 O3'
_chemical_name_mineral  'Nordstrandite'
_symmetry_space_group_name_H-M 'P -1'
_space_group_IT_number 2
_space_group_crystal_system 'triclinic'
loop_
_symmetry_equiv_pos_as_xyz
   'x, y, z'
   '-x, -y, -z'
_cell_length_a        5.11400
_cell_length_b        5.08200
_cell_length_c        5.12700
_cell_angle_alpha    70.2700
_cell_angle_beta     74.0000
_cell_angle_gamma    58.4700
loop_
_atom_site_label
_atom_site_fract_x
_atom_site_fract_y
_atom_site_fract_z
_atom_site_occupancy
_atom_site_B_iso_or_equiv
al      0.337   0.333   0.010    1.00000    1.000
o      0.319   0.933   0.242    1.00000    1.000
o      0.943   0.591   0.203    1.00000    1.000
o      0.622   0.285   0.208    1.00000    1.000
_cell_measurement_wavelength    1.541874
_cell_measurement_radiation   'x-rays'
_exptl_crystal_density_diffrn    2.442000
loop_
_pd_peak_d_spacing
_pd_peak_intensity
     4.789061       1000.00
     4.325625        168.89
     4.209267        129.92
     4.163173        121.75
     3.893988        122.45
     3.612741        128.47
     3.427530         45.76
     3.029327         34.79
     2.845951         42.93
     2.705207         17.86
     2.502679          9.48
     2.489098          1.23
     2.483967          1.74
     2.483215         67.99
     2.455571         44.47
     2.394531         29.25
     2.391626        254.00
     2.331281         32.80
     2.269367        274.93
     2.215716          0.51
     2.214035          2.23
     2.162813          7.27
     2.145839         13.62
     2.119933          5.29
     2.104633          7.65
     2.081586          5.97
     2.077531          4.25
     2.069326          0.09
     2.017421        252.95
     1.993240         10.55
     1.973663          6.19
     1.946994         11.48
     1.899332        219.23
     1.897655          3.30
     1.885692         13.39
     1.817284         13.73
     1.806371         11.17
     1.786061        157.27
     1.778331         15.09
     1.713765          3.44
     1.704831          0.01
     1.702302          7.80
     1.679278          0.27
     1.671102          4.85
     1.667880         40.03
     1.654577         18.65
     1.652394          8.59
     1.633880          2.13
     1.625255          2.20
     1.620347          1.85
     1.614627          3.70
     1.599391         43.88
     1.596667          6.40
     1.596354          0.41
     1.593874          0.57
     1.591570          0.05
     1.575643          6.93
     1.571656          9.40
     1.564389         10.36
     1.561581          6.96
     1.559634         27.89
     1.552576          1.15
     1.549625         37.86
     1.547147          2.19
     1.545576          4.80
     1.516556         73.37
     1.514663          4.33
     1.512919         21.83
     1.479533         57.73
     1.471058          0.26
     1.463673          8.84
     1.446957          2.44
     1.441875         48.49
     1.441441         67.99
     1.441000         39.04
     1.440932          3.15
     1.437881          0.70
     1.431294          6.06
     1.430284         48.31
     1.422975          4.27
     1.403089         24.31
     1.388542          0.33
     1.387920          0.00
     1.387724          3.17
     1.386942          4.71
     1.386771          3.78
     1.372778          4.16
     1.367630          5.36
     1.363127          3.66
     1.358539         10.19
     1.352916          1.89
     1.352604          3.14
     1.350675          8.13
     1.348586          1.77
     1.347588          0.56
     1.340919          5.42
     1.335860          0.93
     1.308719          2.11
     1.303013         38.96
     1.297996          1.10
     1.295651          2.15
     1.277833          5.43
     1.276272          1.50
     1.268127          0.07
     1.264535          0.16
     1.262055          0.19
     1.252587         29.29
     1.251340          8.96
     1.244549          8.24
     1.241984          3.52
     1.241607          0.02
     1.230575          0.89
     1.228637          9.53
     1.227785         28.04
     1.222707          0.57
     1.222682          0.33
     1.220583          4.33
     1.219949          1.27
     1.218740          8.71
     1.218356          1.07
     1.217730          0.12
     1.216910          3.40
     1.216907          2.47
     1.214702          2.47
     1.207615          1.82
     1.204247          0.24
     1.200382          0.72
     1.197265         18.03
     1.195813          0.81
     1.195166         20.25
     1.192846          1.58
     1.192488          1.56
     1.192365          8.36
     1.186033          2.76
     1.182717         24.18
     1.180178          2.65
     1.174234          2.76
     1.172863          0.25
     1.170615          2.01
     1.167789          2.49
     1.166455          0.30
     1.165641          0.00
     1.164984          3.63
     1.163191         21.08
     1.159691          0.31
     1.159628          1.02
     1.156449          0.20
     1.154736          0.41
     1.148752          0.09
     1.148049          0.65
     1.146500          0.01
     1.145731          7.21
     1.142779          5.74
     1.142510          0.00
     1.140881          0.53
     1.138675          0.57
     1.138024          2.18
     1.136896          3.97
     1.135690          0.03
     1.135428          0.21
     1.134683          2.61
     1.123165          0.06
     1.118899          0.10
     1.116976         11.17
     1.108586          0.21
     1.107858          2.29
     1.107017          0.43
     1.105987          0.21
     1.104371          0.76
     1.102361          0.10
     1.102111          0.16
     1.100727          0.59
     1.094161          1.22
     1.089983          0.00
     1.088689          1.35
     1.086086          0.13
     1.084006          2.35
     1.082778          2.26
     1.081406          3.97
     1.078038         13.70
     1.072919         10.33
     1.065542          1.33
     1.064888          0.18
     1.059967          2.65
     1.059180          0.35
     1.058153          1.04
     1.056024          0.82
     1.055880          0.74
     1.055037          0.26
     1.052317          1.08
     1.050776          4.54
     1.050731          3.15
     1.040793          0.00
     1.040036          0.86
     1.038766          5.08
     1.036473          0.43
     1.034663          0.06
     1.033990          0.47
     1.032780          0.39
     1.030596          1.31
     1.027923          1.10
     1.025503          0.62
     1.019264          0.61
     1.016745          0.21
     1.014831          1.13
     1.014824          2.79
     1.014456         14.49
     1.012760          1.05
     1.012288          0.00
     1.011638          0.04
     1.011288          0.00
     1.009776          4.15
     1.008710          8.34
##############################################################################
###                            Comments                                    ###
##############################################################################
###   Diffraction pattern calculated by Match!. 
###   I/Ic calculated by Match!. 
###   Space group has been derived from given symmetry operations. 
##############################################################################


