##############################################################################
###               Crystal structure data exported by Match!                ###
##############################################################################
###                           Data published by:                           ###
###                                                                        ###
###               COD (Crystallography Open Database)
##############################################################################
data_9005769
_citation_journal_full    'Physics and Chemistry of Minerals'
_citation_journal_volume  '9'
_citation_page_first  '19'
_citation_page_last   '22'
_citation_year  '1983'
_citation_title  'The electric field gradient at the position of copper inCu2O and electronic charge density analysis by means of K-factors'
loop_
_publ_author_name
  'Hafner S. S.'
  'Nagel S.'
_chemical_formula_sum  'Cu2 O'
_chemical_name_mineral  'Cuprite'
_symmetry_space_group_name_H-M 'P n -3'
_space_group_IT_number 201
_space_group_crystal_system 'cubic'
loop_
_symmetry_equiv_pos_as_xyz
   'x, y, z'
   '-x+0.5, -y+0.5, -z+0.5'
   'z, x, y'
   'y, z, x'
   '-y, -z, x'
   'z, -x, -y'
   '-y, z, -x'
   '-z, -x, y'
   '-z, x, -y'
   'y, -z, -x'
   '-z+0.5, -x+0.5, -y+0.5'
   '-y+0.5, -z+0.5, -x+0.5'
   'y+0.5, z+0.5, -x+0.5'
   '-z+0.5, x+0.5, y+0.5'
   'y+0.5, -z+0.5, x+0.5'
   'z+0.5, x+0.5, -y+0.5'
   'z+0.5, -x+0.5, y+0.5'
   '-y+0.5, z+0.5, x+0.5'
   '-x, -y, z'
   'x, -y, -z'
   '-x, y, -z'
   'x+0.5, y+0.5, -z+0.5'
   '-x+0.5, y+0.5, z+0.5'
   'x+0.5, -y+0.5, z+0.5'
_cell_length_a        4.26960
_cell_length_b        4.26960
_cell_length_c        4.26960
_cell_angle_alpha    90.0000
_cell_angle_beta     90.0000
_cell_angle_gamma    90.0000
loop_
_atom_site_label
_atom_site_fract_x
_atom_site_fract_y
_atom_site_fract_z
_atom_site_occupancy
_atom_site_B_iso_or_equiv
cu      0.250   0.250   0.250    1.00000    1.000
o      0.000   0.000   0.000    1.00000    1.000
_cell_measurement_wavelength    1.541874
_cell_measurement_radiation   'x-rays'
_exptl_crystal_density_diffrn    6.106000
loop_
_pd_peak_d_spacing
_pd_peak_intensity
     3.019063         42.54
     2.465055       1000.00
     2.134800        371.82
     1.743057         10.10
     1.509532        313.48
     1.350166          2.87
     1.287333        265.01
     1.232527         60.76
     1.141099          2.51
     1.067400         37.29
##############################################################################
###                            Comments                                    ###
##############################################################################
###   Diffraction pattern calculated by Match!. 
###   I/Ic calculated by Match!. 
###   Space group has been derived from given symmetry operations. 
##############################################################################


