##############################################################################
###               Crystal structure data exported by Match!                ###
##############################################################################
###                           Data published by:                           ###
###                                                                        ###
###               COD (Crystallography Open Database)
##############################################################################
data_1011247
_citation_journal_full    'Zeitschrift fuer Kristallographie, Kristallgeometrie, Kristallphysik,Kristallchemie (-144,1977)'
_citation_journal_volume  '90'
_citation_page_first  '35'
_citation_page_last   '43'
_citation_year  '1935'
_citation_title  'Ueber die Struktur von Halloysit und Metahalloysit.'
loop_
_publ_author_name
  'Mehmel M'
_chemical_formula_sum  'Al2 H4 O9 Si2'
_chemical_name_mineral  'Metahalloysite'
_chemical_name_common  'Aluminium silicate hydroxide *'
_symmetry_space_group_name_H-M 'C 1 m 1'
_space_group_IT_number 8
_space_group_crystal_system 'monoclinic'
loop_
_symmetry_equiv_pos_as_xyz
   'x, y, z'
   'x+0.5, y+0.5, z'
   'x, -y, z'
   'x+0.5, -y+0.5, z'
_cell_length_a        5.15000
_cell_length_b        8.90000
_cell_length_c        7.57000
_cell_angle_alpha    90.0000
_cell_angle_beta    100.0000
_cell_angle_gamma    90.0000
_cell_formula_units_Z 2
loop_
_atom_site_label
_atom_site_fract_x
_atom_site_fract_y
_atom_site_fract_z
_atom_site_occupancy
_atom_site_B_iso_or_equiv
al      0.250   0.167   0.000    1.00000    1.000
si      0.008   0.167   0.433    1.00000    1.000
o      -0.046   0.000   0.159    1.00000    1.000
o      -0.046   -0.167   -0.159    1.00000    1.000
o      -0.046   0.000   -0.159    1.00000    1.000
o      0.283   0.000   -0.458    1.00000    1.000
o      0.033   0.250   -0.458    1.00000    1.000
o      -0.046   -0.167   0.159    1.00000    1.000
_cell_measurement_wavelength    1.541874
_cell_measurement_radiation   'x-rays'
_exptl_crystal_density_diffrn    2.469000
loop_
_pd_peak_d_spacing
_pd_peak_intensity
     7.454995         31.05
     4.450000        308.60
     4.406494       1000.00
     4.072027         26.39
     3.821034         23.62
     3.727497        318.53
     3.565087         25.42
     3.084563        219.79
     2.857482        125.41
     2.655186         27.10
     2.560753        219.30
     2.538964        103.74
     2.535880        135.35
     2.489860         55.68
     2.484998        101.45
     2.359143        160.15
     2.319428        102.11
     2.289730         47.29
     2.282962         50.71
     2.225000          0.28
     2.205269        148.04
     2.203247         36.18
     2.202730        112.61
     2.169630          4.17
     2.132066         35.09
     2.037026         77.04
     2.036014         17.46
     2.031250         93.67
     2.029266         16.03
     1.952432        115.56
     1.945445          5.94
     1.910517         17.18
     1.867024         13.07
     1.863749          1.73
     1.817735         49.38
     1.787914         39.40
     1.782544          4.41
     1.719066          7.38
     1.709985        111.01
     1.683238         15.87
     1.679563         40.23
     1.673370          8.36
     1.672486          0.85
     1.660888         59.85
     1.659079          0.41
     1.657638         29.42
     1.644188         41.75
     1.638345         76.20
     1.630536         13.41
     1.623561          0.02
     1.618659          1.76
     1.595706          5.29
     1.593410          9.79
     1.573982         55.36
     1.565448          6.26
     1.565379         20.71
     1.542282          0.06
     1.537456         11.86
     1.504518          4.84
     1.499340          2.30
     1.490999         16.39
     1.484222         44.96
     1.483333         54.66
     1.481846          1.27
     1.468831         24.59
     1.467537          4.86
     1.464563          3.52
     1.454815         12.86
     1.447712          0.19
     1.442824          2.33
     1.430215         12.43
     1.429164          4.68
     1.428741         11.51
     1.413754          4.77
     1.401578         12.88
     1.395530          3.25
     1.390935         12.76
     1.378216         12.72
     1.360607          3.38
     1.357342         28.39
     1.355832         15.06
     1.351778          9.19
     1.340624          5.94
     1.331587          2.58
     1.327593          1.44
     1.322324          6.66
     1.319279          5.46
     1.301237         14.03
     1.287492          7.99
     1.284968         12.09
     1.283407          8.86
     1.280773          6.24
     1.280377          6.48
     1.273678          9.03
     1.269482         17.76
     1.267940         25.95
     1.248857          1.77
     1.245977          3.47
     1.244930         19.18
     1.243839          4.67
     1.242499          4.92
     1.242019         19.29
     1.238613         10.22
     1.236768          1.00
     1.234720          4.81
     1.233267          9.52
     1.225816         15.23
     1.225089          0.05
     1.220778          5.87
     1.219407          6.85
     1.218307          0.23
     1.217561          5.89
     1.215585          2.33
     1.213461          3.11
     1.210577          0.03
     1.208541          0.56
     1.201223          1.68
     1.197640          0.77
     1.196726          0.06
     1.188362          1.49
     1.185905          2.08
     1.185875          6.06
     1.182234          1.47
     1.181124         13.25
     1.179572          8.20
     1.179437          3.38
     1.175065          1.40
     1.172622          0.08
     1.160614          6.09
     1.159714          2.41
     1.158747          1.53
     1.158463          9.70
     1.156488          0.19
     1.156376          0.58
     1.151356          0.14
     1.148293          0.48
     1.146609          1.32
     1.144865          6.65
     1.141481          6.17
     1.135518         16.87
     1.123761          3.74
     1.123251          2.07
     1.114374          1.18
     1.112500          0.33
     1.108759          1.68
     1.105684          3.17
     1.102634          0.31
     1.101623          1.49
     1.101365         30.15
     1.100316          1.72
     1.099604         32.28
     1.089038          1.27
     1.087905          3.04
     1.086585          5.60
     1.084815          2.66
     1.084495          4.00
     1.081248          0.41
     1.077314         10.97
     1.072813          2.72
     1.068602          4.01
     1.066764          1.49
     1.066033          1.86
     1.064999         14.63
     1.061109          3.41
     1.057518          2.95
     1.057018          3.61
     1.054574          1.57
     1.051575         13.95
     1.049109          1.20
     1.049073          5.13
     1.048223          3.78
     1.046287          2.97
     1.035750          3.19
     1.032170          1.48
     1.028865          0.35
     1.028188          2.00
     1.027531          1.61
     1.025916          0.22
     1.022436          0.59
     1.021190          2.25
     1.021116          0.79
     1.018974          1.72
     1.018774          0.05
     1.018513          3.52
     1.018160          5.62
     1.018007          1.23
     1.016412          6.22
     1.016135          6.92
     1.015625          3.68
     1.015419          7.56
     1.015390          3.79
     1.014633         11.52
     1.011418          3.23
     1.009064          1.40
     1.007827          0.51
     1.007404          0.02
##############################################################################
###                            Comments                                    ###
##############################################################################
###   by heating halloysite to 378 K
###   Diffraction pattern calculated by Match!. 
###   I/Ic calculated by Match!. 
###   Space group has been derived from given symmetry operations. 
##############################################################################


