##############################################################################
###               Crystal structure data exported by Match!                ###
##############################################################################
###                           Data published by:                           ###
###                                                                        ###
###               COD (Crystallography Open Database)
##############################################################################
data_2211652
_citation_journal_full    'Acta Crystallographica Section E'
_citation_journal_volume  '62(12)'
_citation_page_first  'i250'
_citation_page_last   'i252'
_citation_year  '2006'
_citation_title  'Goethite, \a-FeO(OH), from single-crystal data'
loop_
_publ_author_name
  'Yang Hexiong'
  'Lu Ren'
  'Downs Robert T.'
  'Costin Gelu'
_chemical_formula_sum  'Fe H O2'
_chemical_name_common  'Goethite'
_symmetry_space_group_name_H-M 'P b n m'
_space_group_IT_number 62
_space_group_crystal_system 'orthorhombic'
loop_
_symmetry_equiv_pos_as_xyz
   'x, y, z'
   '-x, -y, z+0.5'
   'x+0.5, -y+0.5, -z'
   '-x+0.5, y+0.5, -z+0.5'
   '-x, -y, -z'
   'x, y, -z+0.5'
   '-x+0.5, y+0.5, z'
   'x+0.5, -y+0.5, z+0.5'
_cell_length_a        4.59790
_cell_length_b        9.95100
_cell_length_c        3.01780
_cell_angle_alpha    90.0000
_cell_angle_beta     90.0000
_cell_angle_gamma    90.0000
_cell_formula_units_Z 4
loop_
_atom_site_label
_atom_site_fract_x
_atom_site_fract_y
_atom_site_fract_z
_atom_site_occupancy
_atom_site_B_iso_or_equiv
fe      0.049   0.854   0.250    1.00000    0.464
o      0.706   0.199   0.250    1.00000    0.566
o      0.199   0.053   0.250    1.00000    0.584
h      0.379   0.082   0.250    1.00000    1.342
_cell_measurement_wavelength    1.541874
_cell_measurement_radiation   'x-rays'
_cell_measurement_temperature    273.000000
_exptl_crystal_density_diffrn    4.275000
_exptl_crystal_colour            'brown'
loop_
_pd_peak_d_spacing
_pd_peak_intensity
     4.975500        126.63
     4.173887       1000.00
     3.376817        108.40
     2.690052        471.08
     2.580277        250.37
     2.522918         65.99
     2.487750        165.02
     2.445543        782.78
     2.298950         33.38
     2.250168        105.80
     2.239950         36.03
     2.188012        184.68
     2.086944         14.60
     2.008069         43.37
     1.919588         76.86
     1.889495          8.81
     1.826441          6.80
     1.798632        113.91
     1.771408         31.74
     1.716481        384.79
     1.688408        111.04
     1.658500         37.27
     1.601484         87.64
     1.562549        261.44
     1.560109          5.06
     1.514772          6.95
     1.508900        120.81
     1.504692         53.46
     1.473471         36.65
     1.464717         54.83
     1.453466        118.60
     1.443960          6.34
     1.419021         65.84
     1.391296         50.60
     1.385871          0.37
     1.377622         12.17
     1.366503         51.37
     1.358140         65.62
     1.353798         20.70
     1.346588          0.34
     1.345026         24.92
     1.317709         22.85
     1.316009         81.55
     1.304879          1.51
     1.290138         33.45
     1.263484         22.84
     1.261459         11.68
     1.251444         10.45
     1.243875          0.28
     1.242165         31.30
     1.238497          1.69
     1.228528          5.77
     1.222771          4.02
     1.214297          0.44
     1.209086          0.27
     1.200712          0.21
     1.197709         40.62
     1.179073          2.84
     1.163273          2.21
     1.150016         31.43
     1.149475          4.28
     1.141882         36.63
     1.126521         13.28
     1.125606         11.83
     1.125084         44.47
     1.122356         11.76
     1.119975          0.52
     1.116103         16.77
     1.115649          1.23
     1.094006         14.89
     1.086108          5.38
     1.084606          2.56
     1.075021          6.71
     1.069024          4.14
     1.067985          6.62
     1.065463         28.20
     1.054633         25.46
     1.050984         32.74
     1.049998          3.38
     1.043472          1.70
     1.042257          9.79
     1.028509         26.62
     1.022847         31.97
     1.021938         37.23
     1.012686         34.04
     1.009454         47.03
##############################################################################
###                            Comments                                    ###
##############################################################################
###   Diffraction pattern calculated by Match!. 
###   I/Ic calculated by Match!. 
###   Space group has been derived from given symmetry operations. 
##############################################################################


