##############################################################################
###               Crystal structure data exported by Match!                ###
##############################################################################
###                           Data published by:                           ###
###                                                                        ###
###               COD (Crystallography Open Database)
##############################################################################
data_9015524
_citation_journal_full    'American Mineralogist'
_citation_journal_volume  '97'
_citation_page_first  '661'
_citation_page_last   '665'
_citation_year  '2012'
_citation_title  'Structural trends for celestite (SrSO4), anglesite (PbSO4), and barite (BaSO4):confirmation of expected variations within SO4 groups'
loop_
_publ_author_name
  'Antao S. M.'
_chemical_formula_sum  'O4 Pb S'
_chemical_name_mineral  'Anglesite'
_chemical_name_common  'Lead(II) sulfate'
_symmetry_space_group_name_H-M 'P b n m'
_space_group_IT_number 62
_space_group_crystal_system 'orthorhombic'
loop_
_symmetry_equiv_pos_as_xyz
   'x, y, z'
   '-x, -y, z+0.5'
   'x+0.5, -y+0.5, -z'
   '-x+0.5, y+0.5, -z+0.5'
   '-x, -y, -z'
   'x, y, -z+0.5'
   '-x+0.5, y+0.5, z'
   'x+0.5, -y+0.5, z+0.5'
_cell_length_a        6.95802
_cell_length_b        8.48024
_cell_length_c        5.39754
_cell_angle_alpha    90.0000
_cell_angle_beta     90.0000
_cell_angle_gamma    90.0000
loop_
_atom_site_label
_atom_site_fract_x
_atom_site_fract_y
_atom_site_fract_z
_atom_site_occupancy
_atom_site_B_iso_or_equiv
pb      0.167   0.188   0.250    1.00000    1.500
s      0.184   0.436   0.750    1.00000    0.647
o      0.095   0.592   0.750    1.00000    1.618
o      0.047   0.307   0.750    1.00000    1.839
o      0.309   0.419   0.975    1.00000    1.200
_cell_measurement_wavelength    1.541874
_cell_measurement_radiation   'x-rays'
_exptl_crystal_density_diffrn    6.325000
loop_
_pd_peak_d_spacing
_pd_peak_intensity
     5.379099         27.00
     4.264791        801.29
     4.240120        299.07
     3.810101        536.59
     3.620794        217.86
     3.479010        285.69
     3.334325        833.52
     3.218679        688.66
     3.006902       1000.00
     2.764469        375.09
     2.698770        465.36
     2.689550         20.92
     2.618880         99.18
     2.412197          0.00
     2.407249        183.06
     2.356181         19.34
     2.276724        200.60
     2.237176         51.10
     2.193862         63.30
     2.163833        289.19
     2.132395         57.59
     2.130936          2.11
     2.120060          1.85
     2.068018        475.57
     2.066686        513.24
     2.034816          3.69
     2.032394        361.23
     2.028011        331.74
     1.973299        227.48
     1.905050         42.34
     1.904009          1.68
     1.898431          0.93
     1.879437         74.69
     1.810397          0.26
     1.793033        184.98
     1.741889         86.94
     1.739505         21.86
     1.722344          6.35
     1.716420         30.80
     1.706266         47.83
     1.704025         90.34
     1.702344         14.15
     1.701601         79.93
     1.667163          0.09
     1.656244         76.64
     1.647801         26.09
     1.624969         41.21
     1.624744          0.01
     1.621274        187.84
     1.611227        116.88
     1.609340         11.51
     1.575995         10.35
     1.570477         63.84
     1.564826          4.65
     1.542246         18.36
     1.524532          8.22
     1.503451          0.46
     1.502939          0.15
     1.495429         27.41
     1.493462        188.88
     1.482943          7.04
     1.481471          5.64
     1.467133         94.16
     1.462104         24.40
     1.440845        129.37
     1.428635         74.70
     1.421597          0.58
     1.413373          6.95
     1.406374         38.91
     1.402033        111.55
     1.391182         86.32
     1.385087         16.27
     1.382234         12.03
     1.373237          3.06
     1.371782         64.09
     1.369052         58.75
     1.367275         51.51
     1.353724          1.23
     1.349385         57.82
     1.347859          0.20
     1.347538         42.83
     1.345875          0.01
     1.344775          0.03
     1.341618         68.53
     1.330840         18.22
     1.327382          4.16
     1.327030         29.70
     1.322214         16.95
     1.309440          1.77
     1.308831          1.14
     1.304885         25.23
     1.298668          0.03
     1.285841         16.19
     1.284243         49.96
     1.276160         13.74
     1.272528         15.14
     1.270034         32.98
     1.264432         19.01
     1.258068         17.98
     1.252062         20.09
     1.248511         12.48
     1.244448         59.09
     1.237200         20.20
     1.232270         21.99
     1.223903          0.02
     1.220938        102.86
     1.216393         10.96
     1.215170          4.49
     1.214360          1.97
     1.206931          0.01
     1.206099          3.90
     1.203624          0.07
     1.199519         14.34
     1.199496          7.48
     1.193508          0.51
     1.187367         26.33
     1.184745         40.64
     1.180722          0.10
     1.178090          8.46
     1.177844          0.06
     1.165358          8.95
     1.163368         35.77
     1.163122         33.63
     1.159670         22.22
     1.155472          6.20
     1.149375          7.48
     1.148977          0.17
     1.144083         27.44
     1.143657         31.24
     1.138362          0.13
     1.137252          0.01
     1.133129         17.96
     1.124579          0.43
     1.123797          0.47
     1.123426         68.03
     1.119216         14.53
     1.118588         10.38
     1.111442         22.59
     1.107414          0.53
     1.101772          0.03
     1.100762         19.93
     1.097528         26.93
     1.096931          2.41
     1.095314         39.57
     1.091604          7.29
     1.091532          0.12
     1.089499         16.45
     1.081916          0.02
     1.078176         52.66
     1.077143         11.92
     1.075820          4.31
     1.074957          6.65
     1.073804          2.97
     1.072893          0.00
     1.068334         47.82
     1.066746          9.11
     1.066198          6.74
     1.065468         26.57
     1.065444         24.26
     1.060030         20.58
     1.058727          7.95
     1.058405          9.02
     1.057869         32.65
     1.057157          1.14
     1.055067          5.41
     1.053341         36.46
     1.053165         37.26
     1.052306          0.02
     1.047939          0.06
     1.046136         18.55
     1.043999         10.16
     1.040161          0.00
     1.034509         27.19
     1.034009          4.52
     1.033343         19.81
     1.028729         21.39
     1.025735          8.52
     1.023478          9.15
     1.021910          1.26
     1.017408          0.00
     1.016197          3.43
     1.014005          8.86
     1.010435          2.76
     1.006543         20.49
##############################################################################
###                            Comments                                    ###
##############################################################################
###   Synthetic
###   Diffraction pattern calculated by Match!. 
###   I/Ic calculated by Match!. 
###   Space group has been derived from given symmetry operations. 
##############################################################################


