##############################################################################
###               Crystal structure data exported by Match!                ###
##############################################################################
###                           Data published by:                           ###
###                                                                        ###
###               COD (Crystallography Open Database)
##############################################################################
data_9009681
_citation_journal_full    'Journal of Applied Physics'
_citation_journal_volume  '49'
_citation_page_first  '5823'
_citation_page_last   '5826'
_citation_year  '1978'
_citation_title  'Crystal structure and compression of ruby to 46 kbarP = 28 kbar'
loop_
_publ_author_name
  'Finger L. W.'
  'Hazen R. M.'
_chemical_formula_sum  'Al2 O3'
_chemical_name_mineral  'Corundum'
_symmetry_space_group_name_H-M 'R -3 c'
_space_group_IT_number 167
_space_group_crystal_system 'trigonal (hexagonal axes)'
loop_
_symmetry_equiv_pos_as_xyz
   'x, y, z'
   'x+0.66667, y+0.33333, z+0.33333'
   'x+0.33333, y+0.66667, z+0.66667'
   '-y, x-y, z'
   '-y+0.66667, x-y+0.33333, z+0.33333'
   '-y+0.33333, x-y+0.66667, z+0.66667'
   '-x+y, -x, z'
   '-x+y+0.66667, -x+0.33333, z+0.33333'
   '-x+y+0.33333, -x+0.66667, z+0.66667'
   'x-y, -y, -z+0.5'
   'x-y+0.66667, -y+0.33333, -z+0.83333'
   'x-y+0.33333, -y+0.66667, -z+0.16667'
   '-x, -x+y, -z+0.5'
   '-x+0.66667, -x+y+0.33333, -z+0.83333'
   '-x+0.33333, -x+y+0.66667, -z+0.16667'
   'y, x, -z+0.5'
   'y+0.66667, x+0.33333, -z+0.83333'
   'y+0.33333, x+0.66667, -z+0.16667'
   '-x, -y, -z'
   '-x+0.66667, -y+0.33333, -z+0.33333'
   '-x+0.33333, -y+0.66667, -z+0.66667'
   'y, -x+y, -z'
   'y+0.66667, -x+y+0.33333, -z+0.33333'
   'y+0.33333, -x+y+0.66667, -z+0.66667'
   'x-y, x, -z'
   'x-y+0.66667, x+0.33333, -z+0.33333'
   'x-y+0.33333, x+0.66667, -z+0.66667'
   '-x+y, y, z+0.5'
   '-x+y+0.66667, y+0.33333, z+0.83333'
   '-x+y+0.33333, y+0.66667, z+0.16667'
   'x, x-y, z+0.5'
   'x+0.66667, x-y+0.33333, z+0.83333'
   'x+0.33333, x-y+0.66667, z+0.16667'
   '-y, -x, z+0.5'
   '-y+0.66667, -x+0.33333, z+0.83333'
   '-y+0.33333, -x+0.66667, z+0.16667'
_cell_length_a        4.74370
_cell_length_b        4.74370
_cell_length_c       12.94300
_cell_angle_alpha    90.0000
_cell_angle_beta     90.0000
_cell_angle_gamma   120.0000
loop_
_atom_site_label
_atom_site_fract_x
_atom_site_fract_y
_atom_site_fract_z
_atom_site_occupancy
_atom_site_B_iso_or_equiv
al      0.000   0.000   0.352    1.00000    0.199
o      0.307   0.000   0.250    1.00000    0.439
_cell_measurement_wavelength    1.541874
_cell_measurement_radiation   'x-rays'
_cell_measurement_pressure       2800000.000000
_exptl_crystal_density_diffrn    4.027000
loop_
_pd_peak_d_spacing
_pd_peak_intensity
     3.468341        617.18
     2.541951        966.62
     2.371850        451.33
     2.157167          3.65
     2.078463        977.28
     1.957827         16.62
     1.734170        491.06
     1.595859       1000.00
     1.541686         23.41
     1.509887         35.12
     1.505346         70.90
     1.399902        391.12
     1.369388        604.71
     1.331559         11.62
     1.270976         14.67
     1.234482        177.22
     1.229726         90.20
     1.189074          6.88
     1.185925         70.89
     1.156114         10.09
     1.143510         54.54
     1.135010          2.79
     1.122140         41.16
     1.120272         28.86
     1.095041         86.20
     1.078583         20.34
     1.074717        102.30
     1.042848          2.06
     1.039231        202.84
     1.014347         25.65
##############################################################################
###                            Comments                                    ###
##############################################################################
###   Diffraction pattern calculated by Match!. 
###   I/Ic calculated by Match!. 
##############################################################################


