##############################################################################
###               Crystal structure data exported by Match!                ###
##############################################################################
###                           Data published by:                           ###
###                                                                        ###
###               COD (Crystallography Open Database)
##############################################################################
data_4002439
_citation_journal_full    'Chemistry of Materials (1,1989-)'
_citation_journal_volume  '18'
_citation_page_first  '1464'
_citation_page_last   '1469'
_citation_year  '2006'
_citation_title  'Magic silica clusters as nanoscale building units forsuper-(tris)tetrahedral materials'
loop_
_publ_author_name
  'Wojdel J.C.'
  'Zwijnenburg M.A.'
  'Bromley S.T.'
_chemical_formula_sum  'O2 Si'
_chemical_name_common  'Silica'
_symmetry_space_group_name_H-M 'P 2 2 2'
_space_group_IT_number 16
_space_group_crystal_system 'orthorhombic'
loop_
_symmetry_equiv_pos_as_xyz
   'x, y, z'
   '-x, -y, z'
   'x, -y, -z'
   '-x, y, -z'
_cell_length_a       14.17000
_cell_length_b       12.73000
_cell_length_c       10.32000
_cell_angle_alpha    90.0000
_cell_angle_beta     90.0000
_cell_angle_gamma    90.0000
_cell_formula_units_Z 32
loop_
_atom_site_label
_atom_site_fract_x
_atom_site_fract_y
_atom_site_fract_z
_atom_site_occupancy
_atom_site_B_iso_or_equiv
o      0.432   0.232   0.587    1.00000    1.000
o      0.074   0.268   0.407    1.00000    1.000
si      0.365   0.500   0.000    1.00000    1.000
o      0.074   0.917   0.082    1.00000    1.000
si      0.000   0.161   0.000    1.00000    1.000
si      0.000   0.337   0.500    1.00000    1.000
si      0.184   0.203   0.107    1.00000    1.000
o      0.305   0.429   0.893    1.00000    1.000
o      0.076   0.583   0.420    1.00000    1.000
si      0.500   0.161   0.500    1.00000    1.000
o      0.433   0.082   0.418    1.00000    1.000
o      0.199   0.074   0.100    1.00000    1.000
o      0.285   0.253   0.744    1.00000    1.000
o      0.429   0.268   0.907    1.00000    1.000
si      0.367   0.000   0.500    1.00000    1.000
o      0.308   0.072   0.604    1.00000    1.000
si      0.142   0.500   0.500    1.00000    1.000
si      0.187   0.298   0.385    1.00000    1.000
o      0.201   0.427   0.398    1.00000    1.000
si      0.139   0.000   0.000    1.00000    1.000
o      0.249   0.252   0.993    1.00000    1.000
o      0.218   0.252   0.244    1.00000    1.000
o      0.071   0.232   0.087    1.00000    1.000
o      0.430   0.416   0.080    1.00000    1.000
si      0.317   0.300   0.883    1.00000    1.000
o      0.254   0.246   0.493    1.00000    1.000
si      0.500   0.337   0.000    1.00000    1.000
si      0.320   0.201   0.608    1.00000    1.000
_cell_measurement_wavelength    1.541874
_cell_measurement_radiation   'x-rays'
_exptl_crystal_density_diffrn    1.715000
loop_
_pd_peak_d_spacing
_pd_peak_intensity
    14.170000          1.37
    12.730000          0.01
    10.320000          0.00
     9.469773          0.00
     8.342081          0.58
     8.016619          0.01
     7.085000         46.19
     6.977390       1000.00
     6.365000        137.47
     6.190764          0.25
     5.840978          0.00
     5.806142          0.00
     5.417468          0.00
     5.308817        209.26
     5.160000        265.52
     5.060252          0.05
     4.848534          0.01
     4.782081          0.11
     4.734887         14.89
     4.723333          0.03
     4.531013          0.10
     4.428334          0.00
     4.303547          0.02
     4.294866          0.03
     4.243333          0.01
     4.171041         22.50
     4.069499         62.72
     4.064981          0.00
     4.008309          1.68
     3.963698          0.01
     3.924531          0.02
     3.856967         88.35
     3.793039          0.02
     3.782152         36.97
     3.640365          0.00
     3.560186          0.20
     3.542500          2.37
     3.488695         10.67
     3.484066          0.16
     3.440000          0.00
     3.433036         42.43
     3.412820          0.01
     3.360479          0.07
     3.350594          0.00
     3.342902          0.10
     3.320885          0.02
     3.277451          0.17
     3.240236         55.04
     3.233279         18.36
     3.193151          0.01
     3.182500         29.87
     3.156591          0.00
     3.105148          0.00
     3.095382         34.13
     3.094529          0.00
     3.056171         36.63
     3.041177          0.00
     3.026298          0.00
     3.018544         14.50
     3.006959         48.57
     2.974601          0.15
     2.973466          0.02
     2.964887          0.02
     2.959554          0.10
     2.920489          0.01
     2.903071         24.07
     2.846539          0.00
     2.834000          0.00
     2.794604          0.02
     2.783045          0.08
     2.780694          0.07
     2.766279          0.00
     2.732829          0.05
     2.719409          0.01
     2.716638          1.17
     2.708734          2.02
     2.692705          0.00
     2.672206          0.00
     2.671953          6.40
     2.660559         17.01
     2.654409         24.66
     2.639300          0.00
     2.629644          3.76
     2.625921          0.02
     2.588970          0.02
     2.580000          2.50
     2.557002          0.02
     2.548140          0.07
     2.546000          0.01
     2.538270          0.01
     2.530126          4.99
     2.528591          0.00
     2.511155          0.11
     2.505872          0.00
     2.500281         24.82
     2.489268          0.01
     2.484009          0.03
     2.471887          0.03
     2.467889          0.00
     2.438027          0.11
     2.435113         10.86
     2.424267          4.25
     2.422781         10.04
     2.405759          0.00
     2.395995          0.01
     2.391040          2.61
     2.381468          0.01
     2.367443          2.59
     2.361667          1.02
     2.357710          1.79
     2.356720          0.00
     2.349761         12.09
     2.336102          0.00
     2.333918          4.53
     2.325797         46.49
     2.322045          0.01
     2.314034          8.92
     2.307505          0.04
     2.304988          0.02
     2.302155          0.00
     2.300985          0.03
     2.297571         29.72
     2.283197          0.09
     2.265506          0.21
     2.265408         19.11
     2.264237          0.01
     2.254124          0.00
     2.241151          0.00
     2.229249          0.20
     2.218611          0.02
     2.214167          0.09
     2.204501          0.01
     2.190102         13.57
     2.187320          0.03
     2.178297          0.05
     2.173144          0.07
     2.164900          0.06
     2.155729          1.52
     2.151773         11.35
     2.147433          0.71
     2.143712          0.00
     2.133325         32.87
     2.133278          5.64
     2.121667          3.45
     2.117516          0.00
     2.116469          0.02
     2.104959          0.01
     2.098276          0.00
     2.093987          0.00
     2.085520          3.60
     2.078202          0.00
     2.073317          0.00
     2.068584          0.02
     2.067439          0.03
     2.064000          0.00
     2.063588          0.02
     2.058084          0.00
     2.056205          0.01
     2.055631          0.00
     2.046468          0.00
     2.042447          0.00
     2.037394          0.00
     2.034749          0.77
     2.032490          2.83
     2.027160          2.47
     2.025453          1.61
     2.024286          0.05
     2.023530          3.55
     2.016655          0.16
     2.004155          1.00
     1.999168          0.00
     1.997636          0.11
     1.994183          0.01
     1.986432          0.00
     1.984405          1.39
     1.981849         30.03
     1.981625          0.00
     1.966093          1.42
     1.963353          0.00
     1.962680          0.06
     1.962265          1.59
     1.958151          0.11
     1.958043          0.38
     1.950226          0.01
     1.946993          0.00
     1.944774          0.00
     1.944218          2.65
     1.943717         22.57
     1.935381          0.01
     1.929076          0.01
     1.928483         11.70
     1.924612          4.74
     1.919127          0.00
     1.916046          0.03
     1.907826          0.02
     1.902219          0.00
     1.896520          1.11
     1.896232          0.00
     1.893955          0.00
     1.892049          0.09
     1.891310          0.00
     1.891076          0.78
     1.886755          0.15
     1.884462          0.00
     1.877793          0.22
     1.871680          0.00
     1.870776          2.26
     1.865284          0.01
     1.864147          0.04
     1.862844          3.24
     1.861835          0.00
     1.856077          0.00
     1.844944          5.04
     1.840356          0.74
     1.827499          1.72
     1.827037          0.00
     1.820182          0.75
     1.818571          0.00
     1.812966          0.00
     1.812195          0.01
     1.812109          0.18
     1.806932          8.43
     1.805823          0.00
     1.803777          0.00
     1.802615          0.02
     1.799061          0.47
     1.797554          0.04
     1.795487          1.26
     1.792515          0.01
     1.791335          0.00
     1.790976          0.00
     1.783378          0.00
     1.780093          0.90
     1.777971          0.02
     1.776840          1.60
     1.772032          0.02
     1.771250          4.23
     1.769606          0.06
     1.766131          0.42
     1.761470          0.00
     1.755674          0.00
     1.754349          0.00
     1.749878          0.02
     1.745724          0.00
     1.744633          0.04
     1.744348          0.76
     1.742033          0.01
     1.740045          0.03
     1.736359          0.09
     1.731697          0.00
     1.731453          0.00
     1.729537          0.64
     1.728476          8.15
     1.727486         23.54
     1.725948          0.01
     1.722263          0.04
     1.720000          1.79
     1.718908          0.00
     1.717246          0.04
     1.716518          0.00
     1.715167          0.04
     1.708041          0.00
     1.707587          2.72
     1.707467          0.00
     1.706410          2.49
     1.704512          0.01
     1.702739          0.01
     1.698435          0.03
     1.697126          0.00
     1.692312          0.09
     1.691940          0.07
     1.686751          0.01
     1.685117          0.02
     1.683551          0.02
     1.682572          0.03
     1.682179          0.05
     1.680239          4.04
     1.675891          0.08
     1.675297          1.06
     1.674633          4.65
     1.671451          0.73
     1.668416          0.00
     1.667015          0.06
     1.660975          0.00
     1.660838          0.01
     1.660443          2.00
     1.659115          0.81
     1.657227          0.01
     1.654269          1.12
     1.649159          4.79
     1.644080          1.42
     1.641505          0.01
     1.638725          5.42
     1.636327          0.75
     1.634563          0.00
     1.627876          1.98
     1.625870          0.01
     1.621514          2.83
     1.620118          0.05
     1.617843          0.01
     1.616639          0.47
     1.616178          0.01
     1.614438          0.49
     1.613893          0.01
     1.613575          0.09
     1.613349          0.00
     1.613289          0.66
     1.612166          0.00
     1.611517          0.00
     1.608847          0.03
     1.607735          0.00
     1.603324          0.00
     1.603308          0.01
     1.598322          0.38
     1.597485          6.57
     1.596576          8.18
     1.594027          0.03
     1.593158          0.83
     1.592589          0.08
     1.591250          0.17
     1.584494          0.00
     1.584036          0.01
     1.581311          0.00
     1.580271          0.21
     1.578296         12.38
     1.574759          0.00
     1.574444          0.06
     1.572665          0.00
     1.567874          0.90
     1.566469          0.40
     1.566141          4.90
     1.563782          0.02
     1.563068          0.00
     1.562846          0.43
     1.562539          0.00
     1.560156          0.03
     1.558249          0.02
     1.556435          0.01
     1.555762          0.04
     1.555153          0.01
     1.554120          0.00
     1.552707          0.42
     1.552574          0.14
     1.548195          0.06
     1.547691          0.04
     1.547264          0.27
     1.546594          0.28
     1.544962          0.74
     1.544931          0.01
     1.543743          0.00
     1.542666          0.13
     1.535960          0.00
     1.535297          0.00
     1.530575          0.02
     1.530550          0.00
     1.529840          0.02
     1.528668          0.01
     1.528380          0.03
     1.528085          1.36
     1.526743          0.02
     1.522926          0.00
     1.521982          2.66
     1.520588          0.05
     1.518239          1.04
     1.514689          0.02
     1.513990          1.00
     1.513149          0.01
     1.511908          3.89
     1.511890          0.02
     1.510338          0.01
     1.509767          0.02
     1.509272          9.48
     1.507975          0.01
     1.505904          0.00
     1.504595          1.36
     1.503480          5.12
     1.495476          0.01
     1.492129          0.00
     1.491033          0.11
     1.487300          0.75
     1.486733          0.03
     1.486421          0.00
     1.482444          0.50
     1.479777          1.25
     1.479435          0.00
     1.478310          0.06
     1.477670          0.00
     1.476370          0.12
     1.476111          0.00
     1.474286          0.00
     1.471437          0.00
     1.470382          0.00
     1.467360          0.00
     1.466370          0.04
     1.465447          2.09
     1.464603          0.00
     1.464497          0.01
     1.464015          2.81
     1.461239          0.02
     1.460683          0.10
     1.460671          0.00
     1.460245         22.16
     1.459323          0.47
     1.456738          0.30
     1.454750          0.01
     1.453996          0.00
     1.453642          0.01
     1.451536          0.19
     1.450731          0.00
     1.450073          0.01
     1.448200          0.05
     1.447431          0.56
     1.445223          0.06
     1.444221          0.00
     1.443368          0.00
     1.441011          0.04
     1.440882          0.01
     1.439777          0.70
     1.439165          2.94
     1.437704          0.01
     1.437387          0.00
     1.436778          0.00
     1.436262          0.00
     1.435998         11.24
     1.434516          0.00
     1.434179          6.09
     1.432652          0.29
     1.431622          0.00
     1.428940          0.06
     1.427039          0.07
     1.425243          0.04
     1.424215          0.11
     1.423270          2.65
     1.422654          0.74
     1.419184          0.01
     1.418632          0.02
     1.418088          0.00
     1.417869          0.05
     1.417000          0.78
     1.415120          0.02
     1.414444          0.00
     1.411802          0.01
     1.411420          0.02
     1.411194          0.03
     1.409350          0.06
     1.408947          5.40
     1.408302          0.00
     1.407630          0.00
     1.407450          0.00
     1.407325          0.10
     1.403829          0.00
     1.401343          0.00
     1.399497          0.01
     1.398803          0.30
     1.398383          2.05
     1.398182          0.00
     1.397302          1.46
     1.397252          0.01
     1.396728          0.02
     1.396503          0.02
     1.395478          1.62
     1.395370          1.11
     1.394541          0.15
     1.392627          0.00
     1.391523          1.89
     1.390347          1.64
     1.389335          0.00
     1.387790          0.01
     1.387496          0.01
     1.387073          0.00
     1.385949          0.11
     1.383139          0.69
     1.382128          0.03
     1.381103          0.05
     1.380774          0.02
     1.375123          0.01
     1.374711          0.22
     1.374137          0.07
     1.370882          0.00
     1.370651          0.00
     1.368053          0.29
     1.366479          1.78
     1.366414          0.01
     1.365168          0.04
     1.364488          0.01
     1.364478          0.01
     1.364122          0.01
     1.361206          2.37
     1.361118          0.00
     1.359705          4.86
     1.358610          0.00
     1.358319          0.18
     1.358205         11.91
     1.357845          0.00
     1.356500          2.15
     1.354994          0.00
     1.354367          6.52
     1.353404          4.52
     1.352825          0.00
     1.350194          0.02
##############################################################################
###                            Comments                                    ###
##############################################################################
###   Diffraction pattern calculated by Match!. 
###   I/Ic calculated by Match!. 
###   Space group has been derived from given symmetry operations. 
##############################################################################


